Program Version,EnergyPlus, Version 8.6.0-198c6a3cff, YMD=2019.03.03 19:03
1,5,Environment Title[],Latitude[deg],Longitude[deg],Time Zone[],Elevation[m]
2,6,Day of Simulation[],Month[],Day of Month[],DST Indicator[1=yes 0=no],Hour[],StartMinute[],EndMinute[],DayType
3,3,Cumulative Day of Simulation[],Month[],Day of Month[],DST Indicator[1=yes 0=no],DayType  ! When Daily Report Variables Requested
4,2,Cumulative Days of Simulation[],Month[]  ! When Monthly Report Variables Requested
5,1,Cumulative Days of Simulation[] ! When Run Period Report Variables Requested
525,1,CORE_ZN,Zone Predicted Sensible Load to Setpoint Heat Transfer Rate [W] !Hourly
526,1,CORE_ZN,Zone Predicted Sensible Load to Heating Setpoint Heat Transfer Rate [W] !Hourly
527,1,CORE_ZN,Zone Predicted Sensible Load to Cooling Setpoint Heat Transfer Rate [W] !Hourly
562,1,PERIMETER_ZN_1,Zone Predicted Sensible Load to Setpoint Heat Transfer Rate [W] !Hourly
563,1,PERIMETER_ZN_1,Zone Predicted Sensible Load to Heating Setpoint Heat Transfer Rate [W] !Hourly
564,1,PERIMETER_ZN_1,Zone Predicted Sensible Load to Cooling Setpoint Heat Transfer Rate [W] !Hourly
599,1,PERIMETER_ZN_2,Zone Predicted Sensible Load to Setpoint Heat Transfer Rate [W] !Hourly
600,1,PERIMETER_ZN_2,Zone Predicted Sensible Load to Heating Setpoint Heat Transfer Rate [W] !Hourly
601,1,PERIMETER_ZN_2,Zone Predicted Sensible Load to Cooling Setpoint Heat Transfer Rate [W] !Hourly
636,1,PERIMETER_ZN_3,Zone Predicted Sensible Load to Setpoint Heat Transfer Rate [W] !Hourly
637,1,PERIMETER_ZN_3,Zone Predicted Sensible Load to Heating Setpoint Heat Transfer Rate [W] !Hourly
638,1,PERIMETER_ZN_3,Zone Predicted Sensible Load to Cooling Setpoint Heat Transfer Rate [W] !Hourly
673,1,PERIMETER_ZN_4,Zone Predicted Sensible Load to Setpoint Heat Transfer Rate [W] !Hourly
674,1,PERIMETER_ZN_4,Zone Predicted Sensible Load to Heating Setpoint Heat Transfer Rate [W] !Hourly
675,1,PERIMETER_ZN_4,Zone Predicted Sensible Load to Cooling Setpoint Heat Transfer Rate [W] !Hourly
710,1,ATTIC,Zone Predicted Sensible Load to Setpoint Heat Transfer Rate [W] !Hourly
711,1,ATTIC,Zone Predicted Sensible Load to Heating Setpoint Heat Transfer Rate [W] !Hourly
712,1,ATTIC,Zone Predicted Sensible Load to Cooling Setpoint Heat Transfer Rate [W] !Hourly
End of Data Dictionary
1,TUCSON-DAVIS-MONTHAN.AFB_AZ_USA ANN HTG 99.6% CONDNS DB,  33.45,-111.98,  -7.00, 337.00
2,1,12,21, 0, 1, 0.00,60.00,WinterDesignDay
525,1478.9320368091255
526,1478.9320368091255
527,40367.06925395341
562,3011.817695383485
563,3011.817695383485
564,34665.90992430115
599,1837.5663786359219
600,1837.5663786359219
601,20890.207728658042
636,2872.76880425806
637,2872.76880425806
638,34547.677675837615
673,1817.8625537215487
674,1812.0289161263424
675,20861.596686750712
710,0.0
711,0.0
712,0.0
2,1,12,21, 0, 2, 0.00,60.00,WinterDesignDay
525,1328.7075986099242
526,1328.7075986099242
527,38364.693018142825
562,3433.955400930867
563,3433.955400930867
564,33504.06289000428
599,2112.5383053084906
600,2112.5383053084906
601,20221.15922378949
636,3279.282175729284
637,3279.282175729284
638,33360.63555130794
673,2099.0900133192595
674,2099.0900133192595
675,20199.547528959756
710,0.0
711,0.0
712,0.0
2,1,12,21, 0, 3, 0.00,60.00,WinterDesignDay
525,993.741517470749
526,993.741517470749
527,35576.677800166246
562,2600.998444577592
563,2600.998444577592
564,30479.933493536024
599,1624.4948185162975
600,1624.4948185162975
601,18465.42891734082
636,2510.6617353888
637,2510.6617353888
638,30503.187032556427
673,1618.2361943779963
674,1618.2361943779963
675,18450.74249024626
710,0.0
711,0.0
712,0.0
2,1,12,21, 0, 4, 0.00,60.00,WinterDesignDay
525,1323.5628230301647
526,1323.5628230301647
527,38363.44795572709
562,3456.514982160616
563,3456.514982160616
564,33550.161320910775
599,2126.656581220363
600,2126.656581220363
601,20247.643635213823
636,3299.211020128069
637,3299.211020128069
638,33397.74213764218
673,2114.039496076345
674,2114.039496076345
675,20227.587494519772
710,0.0
711,0.0
712,0.0
2,1,12,21, 0, 5, 0.00,60.00,WinterDesignDay
525,988.3896786309323
526,988.3896786309323
527,35576.137703083026
562,2607.7935178230205
563,2607.7935178230205
564,30494.300141951564
599,1628.919637903931
600,1628.919637903931
601,18474.36372119564
636,2516.7382668033924
637,2516.7382668033924
638,30515.21535257968
673,1623.0239567118833
674,1623.0239567118833
675,18460.29804451863
710,0.0
711,0.0
712,0.0
2,1,12,21, 0, 6, 0.00,60.00,WinterDesignDay
525,1315.057160950216
526,1315.057160950216
527,38355.18982102729
562,3460.4952280558805
563,3460.4952280558805
564,33556.3059738759
599,2129.341357019897
600,2129.341357019897
601,20252.345375578265
636,3302.9527498204675
637,3302.9527498204675
638,33404.301581062646
673,2116.8721241153485
674,2116.8721241153485
675,20232.5402173012
710,0.0
711,0.0
712,0.0
2,1,12,21, 0, 7, 0.00,60.00,WinterDesignDay
525,981.7324232420518
526,981.7324232420518
527,35572.92330487565
562,2608.920016025377
563,2608.920016025377
564,30493.994216568037
599,1629.9871289158036
600,1629.9871289158036
601,18476.092246517317
636,2518.2130956934884
637,2518.2130956934884
638,30517.616711276176
673,1624.1726251898579
674,1624.1726251898579
675,18462.132434025214
710,0.0
711,0.0
712,0.0
2,1,12,21, 0, 8, 0.00,60.00,WinterDesignDay
525,1308.8523624687707
526,1308.8523624687707
527,38347.84963430808
562,3322.713028592521
563,3322.713028592521
564,33452.220668457674
599,2016.0416356904127
600,2016.0416356904127
601,20065.121708268896
636,3124.7828490142815
637,3124.7828490142815
638,33076.15217703579
673,2003.3203246067226
674,2003.3203246067226
675,20049.570174934615
710,0.0
711,0.0
712,0.0
2,1,12,21, 0, 9, 0.00,60.00,WinterDesignDay
525,981.3737207220656
526,981.3737207220656
527,35571.29245796476
562,2517.235031132308
563,2517.235031132308
564,30510.681332162454
599,1525.5449502481215
600,1525.5449502481215
601,18252.293682093146
636,2345.9705076570212
637,2345.9705076570212
638,30081.523599195032
673,1518.7703854727145
674,1518.7703854727145
675,18246.095866566386
710,0.0
711,0.0
712,0.0
2,1,12,21, 0,10, 0.00,60.00,WinterDesignDay
525,1312.4656625633797
526,1312.4656625633797
527,38350.52324717538
562,3315.9294240859617
563,3315.9294240859617
564,33441.20104092212
599,2013.2203327918085
600,2013.2203327918085
601,20061.789905289876
636,3119.9349646224327
637,3119.9349646224327
638,33066.22424560063
673,2000.7353390649796
674,2000.7353390649796
675,20046.279636559808
710,0.0
711,0.0
712,0.0
2,1,12,21, 0,11, 0.00,60.00,WinterDesignDay
525,984.5769458371324
526,984.5769458371324
527,35572.67244218109
562,2515.4325872889362
563,2515.4325872889362
564,30507.130982814615
599,1525.1629810868046
600,1525.1629810868046
601,18252.253711067056
636,2344.8519896873195
637,2344.8519896873195
638,30077.464607825703
673,1518.3423761078714
674,1518.3423761078714
675,18245.900731999336
710,0.0
711,0.0
712,0.0
2,1,12,21, 0,12, 0.00,60.00,WinterDesignDay
525,1318.8806673522586
526,1318.8806673522586
527,38358.22327058996
562,3314.6691500770035
563,3314.6691500770035
564,33438.877370136244
599,2012.994776843285
600,2012.994776843285
601,20061.53052808875
636,3119.6309455756978
637,3119.6309455756978
638,33065.24485992229
673,2000.497154347933
674,2000.497154347933
675,20045.982616479218
710,0.0
711,0.0
712,0.0
2,1,12,21, 0,13, 0.00,60.00,WinterDesignDay
525,992.0847216422907
526,992.0847216422907
527,35577.7635228507
562,2514.8013668783337
563,2514.8013668783337
564,30505.73068862344
599,1525.1503454896376
600,1525.1503454896376
601,18252.384509963773
636,2344.7514060448616
637,2344.7514060448616
638,30076.78153025365
673,1518.321215699243
674,1518.321215699243
675,18245.998609955088
710,0.0
711,0.0
712,0.0
2,1,12,21, 0,14, 0.00,60.00,WinterDesignDay
525,1329.0826577059709
526,1329.0826577059709
527,38371.051229684956
562,3314.1015099994024
563,3314.1015099994024
564,33437.77886592136
599,2013.005320965384
600,2013.005320965384
601,20061.59637309084
636,3119.705980215653
637,3119.705980215653
638,33065.20987345532
673,2000.5034196309177
674,2000.5034196309177
675,20046.035023250264
710,0.0
711,0.0
712,0.0
2,1,12,21, 0,15, 0.00,60.00,WinterDesignDay
525,994.7912817096267
526,994.7912817096267
527,35580.636979952666
562,2514.435545630325
563,2514.435545630325
564,30504.85208950087
599,1525.1863122973045
600,1525.1863122973045
601,18252.516365422092
636,2344.789212158696
637,2344.789212158696
638,30076.60032106927
673,1518.3539642550102
674,1518.3539642550102
675,18246.115391288582
710,0.0
711,0.0
712,0.0
2,1,12,21, 0,16, 0.00,60.00,WinterDesignDay
525,1328.7709389722613
526,1328.7709389722613
527,38372.77119126641
562,3313.726749964673
563,3313.726749964673
564,33437.042294822815
599,2013.0375279132506
600,2013.0375279132506
601,20061.680055780016
636,3119.8031539936856
637,3119.8031539936856
638,33065.27852907577
673,2000.5330311889645
674,2000.5330311889645
675,20046.110523601932
710,0.0
711,0.0
712,0.0
2,1,12,21, 0,17, 0.00,60.00,WinterDesignDay
525,996.7860382695623
526,996.7860382695623
527,35582.89856718708
562,2514.164289020931
563,2514.164289020931
564,30504.208525434613
599,1525.2131154319288
600,1525.2131154319288
601,18252.613684140673
636,2344.816927282149
637,2344.816927282149
638,30076.4794218608
673,1518.3786126532061
674,1518.3786126532061
675,18246.202176257455
710,0.0
711,0.0
712,0.0
2,1,12,21, 0,18, 0.00,60.00,WinterDesignDay
525,1329.1386641731572
526,1329.1386641731572
527,38374.073087257915
562,3313.446559994058
563,3313.446559994058
564,33436.492826703805
599,2013.0604822177283
600,2013.0604822177283
601,20061.739867979715
636,3119.872714019007
637,3119.872714019007
638,33065.32429489429
673,2000.5541093421741
674,2000.5541093421741
675,20046.164436651146
710,0.0
711,0.0
712,0.0
2,1,12,21, 0,19, 0.00,60.00,WinterDesignDay
525,994.167938729434
526,994.167938729434
527,35581.87422545569
562,2621.791704100588
563,2621.791704100588
564,30577.018668918707
599,1618.5912285708744
600,1618.5912285708744
601,18417.33023246573
636,2493.667710747775
637,2493.667710747775
638,30377.51040274611
673,1612.7024657631785
674,1612.7024657631785
675,18407.54922010931
710,0.0
711,0.0
712,0.0
2,1,12,21, 0,20, 0.00,60.00,WinterDesignDay
525,1325.0462588175703
526,1325.0462588175703
527,38370.59543100888
562,3457.530398900662
563,3457.530398900662
564,33550.84241033218
599,2129.320029887993
600,2129.320029887993
601,20251.784262244048
636,3303.5385605398237
637,3303.5385605398237
638,33404.62655412145
673,2116.875071877343
674,2116.875071877343
675,20232.000454277964
710,0.0
711,0.0
712,0.0
2,1,12,21, 0,21, 0.00,60.00,WinterDesignDay
525,991.3356589593512
526,991.3356589593512
527,35582.05580958139
562,2608.0772137739236
563,2608.0772137739236
564,30492.908370823792
599,1630.3023699810408
600,1630.3023699810408
601,18476.051790537964
636,2519.018372308621
637,2519.018372308621
638,30518.21285528508
673,1624.5083732425164
674,1624.5083732425164
675,18462.09428767409
710,0.0
711,0.0
712,0.0
2,1,12,21, 0,22, 0.00,60.00,WinterDesignDay
525,1319.8661618508947
526,1319.8661618508947
527,38365.54269169461
562,3461.2355586800245
563,3461.2355586800245
564,33556.69589122136
599,2131.013640493527
600,2131.013640493527
601,20254.864824333494
636,3305.6871573810763
637,3305.6871573810763
638,33408.56695564491
673,2118.630864345756
674,2118.630864345756
675,20235.181066046036
710,0.0
711,0.0
712,0.0
2,1,12,21, 0,23, 0.00,60.00,WinterDesignDay
525,985.0878858408465
526,985.0878858408465
527,35578.75715302395
562,2609.1065942048003
563,2609.1065942048003
564,30492.784538958804
599,1630.934763435405
600,1630.934763435405
601,18477.171421942177
636,2519.7919490483437
637,2519.7919490483437
638,30519.605890487368
673,1625.1819395159755
674,1625.1819395159755
675,18463.262206240437
710,0.0
711,0.0
712,0.0
2,1,12,21, 0,24, 0.00,60.00,WinterDesignDay
525,1310.4884126580328
526,1310.4884126580328
527,38355.09832122365
562,3462.4277347374423
563,3462.4277347374423
564,33557.63720479297
599,2131.529789996361
600,2131.529789996361
601,20255.70579345775
636,3306.2998087861397
637,3306.2998087861397
638,33409.5817310196
673,2119.175714586316
674,2119.175714586316
675,20236.06367783513
710,0.0
711,0.0
712,0.0
1,TUCSON-DAVIS-MONTHAN.AFB_AZ_USA ANN CLG .4% CONDNS DB=>MWB,  33.45,-111.98,  -7.00, 337.00
2,1, 7,21, 0, 1, 0.00,60.00,SummerDesignDay
525,-5010.382260960768
526,-51082.57345322983
527,-5010.382260960768
562,-4040.4716358294827
563,-40008.463810579466
564,-4040.4716358294827
599,-2421.0908988282476
600,-23998.887726198198
601,-2421.0908988282476
636,-4048.020439855241
637,-40019.068733409025
638,-4048.020439855241
673,-2500.0176832826046
674,-24162.01213307442
675,-2500.0176832826046
710,0.0
711,0.0
712,0.0
2,1, 7,21, 0, 2, 0.00,60.00,SummerDesignDay
525,-5577.559130606877
526,-49498.95093982692
527,-5577.559130606877
562,-4615.833578074161
563,-38887.60356118057
564,-4615.833578074161
599,-2786.5492901881794
600,-23350.89721756353
601,-2786.5492901881794
636,-4619.2739808722645
637,-38894.526776296996
638,-4619.2739808722645
673,-2883.325883395548
674,-23518.604432464894
675,-2883.325883395548
710,0.0
711,0.0
712,0.0
2,1, 7,21, 0, 3, 0.00,60.00,SummerDesignDay
525,-4444.479691896427
526,-46034.303800622314
527,-4444.479691896427
562,-3490.1704982723218
563,-35876.74902249385
564,-3490.1704982723218
599,-2065.139622569222
600,-21497.86635281394
601,-2065.139622569222
636,-3504.0858844889667
637,-35897.73826340098
638,-3504.0858844889667
673,-2106.371877422152
674,-21580.02581027469
675,-2106.371877422152
710,0.0
711,0.0
712,0.0
2,1, 7,21, 0, 4, 0.00,60.00,SummerDesignDay
525,-5504.543481616955
526,-49378.69160804927
527,-5504.543481616955
562,-4391.071561727721
563,-38533.31852145418
564,-4391.071561727721
599,-2638.790781524636
600,-23116.56510078561
601,-2638.790781524636
636,-4402.110619200254
637,-38554.75377340321
638,-4402.110619200254
673,-2713.0429297761743
674,-23248.27150393097
675,-2713.0429297761743
710,0.0
711,0.0
712,0.0
2,1, 7,21, 0, 5, 0.00,60.00,SummerDesignDay
525,-4754.3306737213215
526,-46295.17583528208
527,-4754.3306737213215
562,-3505.9475603815995
563,-35796.159652641065
564,-3505.9475603815995
599,-2063.564447163951
600,-21432.482386657604
601,-2063.564447163951
636,-3525.6472263339897
637,-35828.250640151186
638,-3525.6472263339897
673,-2087.136139305368
674,-21491.29996789458
675,-2087.136139305368
710,0.0
711,0.0
712,0.0
2,1, 7,21, 0, 6, 0.00,60.00,SummerDesignDay
525,-5692.098617748089
526,-49494.682207075435
527,-5692.098617748089
562,-4376.920389298762
563,-38409.77861484973
564,-4376.920389298762
599,-2669.5331825158914
600,-23084.636293399468
601,-2669.5331825158914
636,-4419.3687455607505
637,-38471.85749026483
638,-4419.3687455607505
673,-2667.3234161188716
674,-23119.37000709049
675,-2667.3234161188716
710,0.0
711,0.0
712,0.0
2,1, 7,21, 0, 7, 0.00,60.00,SummerDesignDay
525,-3092.3963837965225
526,-46955.819332876075
527,-3092.3963837965225
562,-2485.2863654424427
563,-36622.31161137786
564,-2485.2863654424427
599,-1861.3240566618467
600,-22608.04172819175
601,-1861.3240566618467
636,-2629.0312215705285
637,-36916.55515916853
638,-2629.0312215705285
673,-1548.3826971213068
674,-22049.28634362167
675,-1548.3826971213068
710,0.0
711,0.0
712,0.0
2,1, 7,21, 0, 8, 0.00,60.00,SummerDesignDay
525,-2824.4571185325417
526,-74163.80843671406
527,-2824.4571185325417
562,-2439.675011079641
563,-57508.33842388825
564,-2439.675011079641
599,-2298.070633720044
600,-35844.68350999321
601,-2298.070633720044
636,-2523.399680767268
637,-57718.75478521511
638,-2523.399680767268
673,-1491.424161814767
674,-34392.62931050396
675,-1491.424161814767
710,0.0
711,0.0
712,0.0
2,1, 7,21, 0, 9, 0.00,60.00,SummerDesignDay
525,-2881.754700957872
526,-82701.51395229688
527,-2881.754700957872
562,-2674.521258215238
563,-64357.32744969338
564,-2674.521258215238
599,-2795.2697650198265
600,-40516.18141305351
601,-2795.2697650198265
636,-2693.2588840824224
637,-64426.97728475798
638,-2693.2588840824224
673,-1620.9847750309134
674,-38427.33811150864
675,-1620.9847750309134
710,0.0
711,0.0
712,0.0
2,1, 7,21, 0,10, 0.00,60.00,SummerDesignDay
525,-2991.4392846913997
526,-80870.86586662046
527,-2991.4392846913997
562,-2950.0842051816144
563,-63321.23264860923
564,-2950.0842051816144
599,-3073.4841153724333
600,-40078.00772143892
601,-3073.4841153724333
636,-2961.350834270758
637,-63369.792312866724
638,-2961.350834270758
673,-1795.1805207072487
674,-37834.82019096519
675,-1795.1805207072487
710,0.0
711,0.0
712,0.0
2,1, 7,21, 0,11, 0.00,60.00,SummerDesignDay
525,-3114.789094850849
526,-66452.05992376439
527,-3114.789094850849
562,-3237.0216659796297
563,-52727.49493828453
564,-3237.0216659796297
599,-2952.9069672806313
600,-33328.10421385567
601,-2952.9069672806313
636,-3225.4271073405375
637,-52728.24096991264
638,-3225.4271073405375
673,-1964.4023293806824
674,-31554.01134062647
675,-1964.4023293806824
710,0.0
711,0.0
712,0.0
2,1, 7,21, 0,12, 0.00,60.00,SummerDesignDay
525,-3230.878361320467
526,-52002.24426055265
527,-3230.878361320467
562,-3493.6703191637557
563,-42060.724456741045
564,-3493.6703191637557
599,-2660.6949327740817
600,-26259.11088388647
601,-2660.6949327740817
636,-3453.042285896789
637,-42007.398828589125
638,-3453.042285896789
673,-2111.2585780746053
674,-25218.572766863144
675,-2111.2585780746053
710,0.0
711,0.0
712,0.0
2,1, 7,21, 0,13, 0.00,60.00,SummerDesignDay
525,-3329.1848290506364
526,-37503.36818360739
527,-3329.1848290506364
562,-3708.382666321116
563,-31303.784222887978
564,-3708.382666321116
599,-2605.090712311365
600,-19530.815725141252
601,-2605.090712311365
636,-3637.5289260008335
637,-31195.800560165604
638,-3637.5289260008335
673,-2234.4776206272513
674,-18832.73301379236
675,-2234.4776206272513
710,0.0
711,0.0
712,0.0
2,1, 7,21, 0,14, 0.00,60.00,SummerDesignDay
525,-3400.7974745887173
526,-25050.091518418096
527,-3400.7974745887173
562,-3875.5254139402955
563,-22049.406437664144
564,-3875.5254139402955
599,-2590.8516093935395
600,-13827.724216987452
601,-2590.8516093935395
636,-3785.7243666439936
637,-21905.616807581042
638,-3785.7243666439936
673,-2350.2328854105745
674,-13359.397171294744
675,-2350.2328854105745
710,0.0
711,0.0
712,0.0
2,1, 7,21, 0,15, 0.00,60.00,SummerDesignDay
525,-3440.8019704697886
526,-29365.1020541023
527,-3440.8019704697886
562,-3971.1803683184967
563,-25424.462570407693
564,-3971.1803683184967
599,-2581.3865391153126
600,-15702.238500762345
601,-2581.3865391153126
636,-3878.676494941872
637,-25274.04948563628
638,-3878.676494941872
673,-2777.561997218005
674,-15918.004331481328
675,-2777.561997218005
710,0.0
711,0.0
712,0.0
2,1, 7,21, 0,16, 0.00,60.00,SummerDesignDay
525,-3463.688246356465
526,-44152.72516772032
527,-3463.688246356465
562,-3981.5710261308177
563,-36628.834844207086
564,-3981.5710261308177
599,-2556.2488199349223
600,-22287.559698121313
601,-2556.2488199349223
636,-3895.4966764213464
637,-36488.25565245594
638,-3895.4966764213464
673,-3298.7175985681274
674,-23377.705727007666
675,-3298.7175985681274
710,0.0
711,0.0
712,0.0
2,1, 7,21, 0,17, 0.00,60.00,SummerDesignDay
525,-3454.5653552658455
526,-56762.43102103204
527,-3454.5653552658455
562,-3912.1896741472247
563,-46100.749190228824
564,-3912.1896741472247
599,-2475.493169601376
600,-27836.988537188885
601,-2475.493169601376
636,-3799.800741189367
637,-45919.87738294105
638,-3799.800741189367
673,-3555.203569415533
674,-29492.31780612863
675,-3555.203569415533
710,0.0
711,0.0
712,0.0
2,1, 7,21, 0,18, 0.00,60.00,SummerDesignDay
525,-3393.0204462454435
526,-67162.81293876175
527,-3393.0204462454435
562,-3754.706109646901
563,-53824.737290217505
564,-3754.706109646901
599,-2343.1641642580616
600,-32348.264581026404
601,-2343.1641642580616
636,-3689.435667325872
637,-53695.17620017295
638,-3689.435667325872
673,-3488.690197596952
674,-34167.404155263604
675,-3488.690197596952
710,0.0
711,0.0
712,0.0
2,1, 7,21, 0,19, 0.00,60.00,SummerDesignDay
525,-3308.7288605698327
526,-73290.0750855411
527,-3308.7288605698327
562,-3502.795751110992
563,-58182.942688153475
564,-3502.795751110992
599,-2179.3373962868427
600,-34904.07456869336
601,-2179.3373962868427
636,-3574.755536267808
637,-58293.970108390546
638,-3574.755536267808
673,-3062.573678828953
674,-36404.616152685034
675,-3062.573678828953
710,0.0
711,0.0
712,0.0
2,1, 7,21, 0,20, 0.00,60.00,SummerDesignDay
525,-6512.87269935817
526,-90656.75621178514
527,-6512.87269935817
562,-6249.094582707491
563,-71469.02443466433
564,-6249.094582707491
599,-3710.180536890172
600,-42667.33817286566
601,-3710.180536890172
636,-6348.080064179314
637,-71603.20925727753
638,-6348.080064179314
673,-4225.852010154488
674,-43584.13109973611
675,-4225.852010154488
710,0.0
711,0.0
712,0.0
2,1, 7,21, 0,21, 0.00,60.00,SummerDesignDay
525,-7110.148157654182
526,-72287.15196245315
527,-7110.148157654182
562,-6631.545059384155
563,-57374.93851839507
564,-6631.545059384155
599,-4026.7859569384236
600,-34390.39537403829
601,-4026.7859569384236
636,-6678.235523785149
637,-57446.07759788927
638,-6678.235523785149
673,-4592.333955833031
674,-35238.55359471353
675,-4592.333955833031
710,0.0
711,0.0
712,0.0
2,1, 7,21, 0,22, 0.00,60.00,SummerDesignDay
525,-5549.924159413892
526,-55689.11368098802
527,-5549.924159413892
562,-4927.055118945024
563,-44019.16195157103
564,-4927.055118945024
599,-2980.717856831416
600,-26414.94013854342
601,-2980.717856831416
636,-4944.531489562858
637,-44053.98924650394
638,-4944.531489562858
673,-3262.143722340987
674,-26886.462297467933
675,-3262.143722340987
710,0.0
711,0.0
712,0.0
2,1, 7,21, 0,23, 0.00,60.00,SummerDesignDay
525,-6229.053082612489
526,-54508.28781792669
527,-6229.053082612489
562,-5511.419472864305
563,-43281.737201661315
564,-5511.419472864305
599,-3352.4838668924676
600,-26012.863481922588
601,-3352.4838668924676
636,-5513.026734672177
637,-43287.333128596314
638,-5513.026734672177
673,-3576.554533868851
674,-26356.197351061634
675,-3576.554533868851
710,0.0
711,0.0
712,0.0
2,1, 7,21, 0,24, 0.00,60.00,SummerDesignDay
525,-4702.601057910244
526,-46374.34786174103
527,-4702.601057910244
562,-3913.543994146692
563,-36487.54684809854
564,-3913.543994146692
599,-2341.847648862614
600,-21900.808326453873
601,-2341.847648862614
636,-3924.151786166851
637,-36509.5943196822
638,-3924.151786166851
673,-2424.4745744163392
674,-22042.685124269574
675,-2424.4745744163392
710,0.0
711,0.0
712,0.0
1,Phoenix Sky Harbor Intl Ap AZ USA TMY3 WMO#=722780,  33.45,-111.98,  -7.00, 337.00
2,1, 1, 1, 0, 1, 0.00,60.00,Holiday
525,0.0
526,-16546.77965673803
527,19951.3646188769
562,0.0
563,-10589.979997136019
564,15642.062058448557
599,0.0
600,-5527.872678769473
601,11172.479189976642
636,0.0
637,-8550.90950597912
638,19630.968950904873
673,0.0
674,-5639.667948068706
675,11025.684076580545
710,0.0
711,0.0
712,0.0
2,1, 1, 1, 0, 2, 0.00,60.00,Holiday
525,0.0
526,-20094.951582711383
527,26302.42342771772
562,0.0
563,-13721.501114730841
564,21919.760304879605
599,0.0
600,-6987.911503391631
601,14929.634895248017
636,0.0
637,-10843.153773848968
638,26059.140736803278
673,0.0
674,-7114.4943245256245
675,14761.023214434268
710,0.0
711,0.0
712,0.0
2,1, 1, 1, 0, 3, 0.00,60.00,Holiday
525,0.0
526,-13172.708337022957
527,18151.439455120155
562,0.0
563,-9007.552279714882
564,15882.33196795773
599,0.0
600,-4645.499325622898
601,10708.347344428448
636,0.0
637,-7235.615145387225
638,18534.150266099314
673,0.0
674,-4704.001431505707
675,10570.863055315747
710,0.0
711,0.0
712,0.0
2,1, 1, 1, 0, 4, 0.00,60.00,Holiday
525,0.0
526,-12826.99488464109
527,18429.863425913416
562,0.0
563,-8803.102365652083
564,16482.83477689487
599,0.0
600,-4511.7828346165215
601,10856.282955657969
636,0.0
637,-7061.931164784448
638,18725.639114487203
673,0.0
674,-4585.713642310132
675,10776.020518418181
710,0.0
711,0.0
712,0.0
2,1, 1, 1, 0, 5, 0.00,60.00,Holiday
525,0.0
526,-12537.59122524142
527,18697.23792893451
562,0.0
563,-8540.401559030153
564,16920.868847074784
599,0.0
600,-4394.779732025961
601,11003.807445679675
636,0.0
637,-6884.046984329372
638,18835.661340809285
673,0.0
674,-4461.729129288271
675,10945.5020737109
710,0.0
711,0.0
712,0.0
2,1, 1, 1, 0, 6, 0.00,60.00,Holiday
525,0.0
526,-12269.008892780776
527,18955.659919861933
562,0.0
563,-8132.176119790634
564,17543.57060165382
599,0.0
600,-4202.460400319395
601,11322.35474497549
636,0.0
637,-6646.088468072897
638,19360.383062805497
673,0.0
674,-4262.631711517629
675,11259.15648085704
710,0.0
711,0.0
712,0.0
2,1, 1, 1, 0, 7, 0.00,60.00,Holiday
525,0.0
526,-12008.228103805906
527,19196.178069252466
562,0.0
563,-7647.071391681377
564,18261.82373952825
599,0.0
600,-3994.5656735531625
601,11797.569560260488
636,0.0
637,-6354.1334884418175
638,20052.97258674791
673,0.0
674,-4049.413536517142
675,11721.946434579755
710,0.0
711,0.0
712,0.0
2,1, 1, 1, 0, 8, 0.00,60.00,Holiday
525,0.0
526,-11764.031488265291
527,19428.72543332328
562,0.0
563,-7429.451173762056
564,18697.337427629733
599,0.0
600,-3957.612569575622
601,11922.666434698907
636,0.0
637,-6127.659123869788
638,20448.737591890647
673,0.0
674,-3878.980689462673
675,12005.09659767238
710,0.0
711,0.0
712,0.0
2,1, 1, 1, 0, 9, 0.00,60.00,Holiday
525,0.0
526,-25753.553146165563
527,43116.11638867137
562,0.0
563,-18460.369723925647
564,35855.89871300623
599,0.0
600,-10665.354477743002
601,22024.936908204025
636,0.0
637,-13001.093940009041
638,42080.0422449844
673,0.0
674,-8138.817841580091
675,24665.886900646074
710,0.0
711,0.0
712,0.0
2,1, 1, 1, 0,10, 0.00,60.00,Holiday
525,0.0
526,-49955.14361161905
527,79626.08106875632
562,0.0
563,-43615.28544998417
564,57364.943524744536
599,0.0
600,-24325.748375772284
601,35671.076424049264
636,0.0
637,-25239.48624422956
638,75029.39330954934
673,0.0
674,-15703.184272455148
675,44076.133851920924
710,0.0
711,0.0
712,0.0
2,1, 1, 1, 0,11, 0.00,60.00,Holiday
525,0.0
526,-55640.6578204447
527,76253.97975190677
562,0.0
563,-52417.465316802096
564,48539.94914572755
599,0.0
600,-26283.990508147497
601,33185.59711068161
636,0.0
637,-26866.321534229835
638,72424.19905624884
673,0.0
674,-16698.009124646214
675,42485.304435317514
710,0.0
711,0.0
712,0.0
2,1, 1, 1, 0,12, 0.00,60.00,Holiday
525,0.0
526,-46516.99501944089
527,58783.036654680174
562,0.0
563,-49324.160038708
564,31820.173421100615
599,0.0
600,-21029.12321826295
601,26282.409841931152
636,0.0
637,-23555.004951219355
638,55800.12315003698
673,0.0
674,-14753.620013828326
675,32550.00477156573
710,0.0
711,0.0
712,0.0
2,1, 1, 1, 0,13, 0.00,60.00,Holiday
525,0.0
526,-38264.61024412288
527,44633.37398894826
562,0.0
563,-45017.88076400503
564,19620.04069140978
599,0.0
600,-16343.26416482543
601,20249.238190337466
636,0.0
637,-20009.52047661081
638,41514.46800379121
673,0.0
674,-12696.860682850454
675,24025.93849285009
710,0.0
711,0.0
712,0.0
2,1, 1, 1, 0,14, 0.00,60.00,Holiday
525,0.0
526,-23671.62101571615
527,25583.034756837707
562,0.0
563,-30025.317811311503
564,9573.3804059806
599,0.0
600,-9767.167007923175
601,11610.285987841153
636,0.0
637,-12107.343396682292
638,22633.809999753412
673,0.0
674,-8216.149286099786
675,13358.202096000476
710,0.0
711,0.0
712,0.0
2,1, 1, 1, 0,15, 0.00,60.00,Holiday
525,0.0
526,-24695.731239131706
527,24601.90116048232
562,0.0
563,-30613.915854200965
564,8552.731083779303
599,0.0
600,-9954.953568653526
601,11282.999721518712
636,0.0
637,-13017.254012298697
638,21866.54111454687
673,0.0
674,-10390.66216252892
675,12144.923441533914
710,0.0
711,0.0
712,0.0
2,1, 1, 1, 0,16, 0.00,60.00,Holiday
525,0.0
526,-52007.31048296714
527,49647.337773992855
562,0.0
563,-57140.31715541964
564,19638.712572029835
599,0.0
600,-21116.748511110818
601,23497.54588381342
636,0.0
637,-28888.475942404988
638,45834.373345519976
673,0.0
674,-22673.402991269657
675,23169.30964317781
710,0.0
711,0.0
712,0.0
2,1, 1, 1, 0,17, 0.00,60.00,Holiday
525,0.0
526,-39021.90745471645
527,36398.67510097502
562,0.0
563,-41031.01789245334
564,15790.366530972417
599,0.0
600,-15505.138442094518
601,17346.138185609667
636,0.0
637,-21802.305819397243
638,33349.243549790706
673,0.0
674,-18364.050325998596
675,15808.894472667787
710,0.0
711,0.0
712,0.0
2,1, 1, 1, 0,18, 0.00,60.00,Holiday
525,0.0
526,-54709.8185513014
527,50594.66311625365
562,0.0
563,-51361.41396882912
564,26979.75643861164
599,0.0
600,-21085.485475863843
601,25056.241222736895
636,0.0
637,-30534.662584703623
638,47718.98239304824
673,0.0
674,-24226.92274344876
675,22960.214072100873
710,0.0
711,0.0
712,0.0
2,1, 1, 1, 0,19, 0.00,60.00,Holiday
525,0.0
526,-50221.33113579033
527,47434.05309992085
562,0.0
563,-42714.175403385845
564,28764.661942596184
599,0.0
600,-18718.905866934143
601,24087.836624223826
636,0.0
637,-27373.411195126548
638,45090.512241551136
673,0.0
674,-20679.13747078755
675,22744.28162872864
710,0.0
711,0.0
712,0.0
2,1, 1, 1, 0,20, 0.00,60.00,Holiday
525,0.0
526,-30467.169394702098
527,29717.9297271738
562,0.0
563,-23972.667753672373
564,19798.794165188287
599,0.0
600,-10644.34316602885
601,14966.07987822206
636,0.0
637,-15842.304364800497
638,27807.644758523224
673,0.0
674,-11635.112513121605
675,14579.123562849802
710,0.0
711,0.0
712,0.0
2,1, 1, 1, 0,21, 0.00,60.00,Holiday
525,0.0
526,-16991.314084214213
527,17165.835627789
562,0.0
563,-12081.452377991067
564,11605.236414055033
599,0.0
600,-5450.763309437239
601,8290.685930548367
636,0.0
637,-8157.736761455716
638,15107.514837209927
673,0.0
674,-5746.49725493837
675,8031.2312793759365
710,0.0
711,0.0
712,0.0
2,1, 1, 1, 0,22, 0.00,60.00,Holiday
525,0.0
526,-16777.687961928892
527,17440.247399168526
562,0.0
563,-11538.859620669418
564,12444.850166651304
599,0.0
600,-5336.281434889434
601,8726.213276353796
636,0.0
637,-7920.992104251662
638,15495.546068965115
673,0.0
674,-5448.951923482598
675,8343.900379344557
710,0.0
711,0.0
712,0.0
2,1, 1, 1, 0,23, 0.00,60.00,Holiday
525,0.0
526,-16564.46226649042
527,17684.122216427684
562,0.0
563,-10656.618862055751
564,13083.625030507328
599,0.0
600,-5251.825102610427
601,9418.607085672194
636,0.0
637,-7948.907773765721
638,16717.262919297656
673,0.0
674,-5296.688264924293
675,9041.906179011072
710,0.0
711,0.0
712,0.0