Program Version,EnergyPlus, Version 8.6.0-198c6a3cff, YMD=2019.03.03 19:03
1,5,Environment Title[],Latitude[deg],Longitude[deg],Time Zone[],Elevation[m]
2,6,Day of Simulation[],Month[],Day of Month[],DST Indicator[1=yes 0=no],Hour[],StartMinute[],EndMinute[],DayType
3,3,Cumulative Day of Simulation[],Month[],Day of Month[],DST Indicator[1=yes 0=no],DayType  ! When Daily Meters Requested
4,2,Cumulative Days of Simulation[],Month[]  ! When Monthly Meters Requested
5,1,Cumulative Days of Simulation[] ! When Run Period Meters Requested
31,1,Electricity:Facility [J] !Hourly
831,1,ElectricityNet:Facility [J] !Hourly
1043,1,Gas:Facility [J] !Hourly
End of Data Dictionary
1,TUCSON-DAVIS-MONTHAN.AFB_AZ_USA ANN HTG 99.6% CONDNS DB,  33.45,-111.98,  -7.00, 337.00
2,1,12,21, 0, 1, 0.00,60.00,WinterDesignDay
31,20032358.80903708
831,20032358.809037076
1043,3387729.272108702
2,1,12,21, 0, 2, 0.00,60.00,WinterDesignDay
31,19037645.697645219
831,19037645.697645215
1043,919509.3899313499
2,1,12,21, 0, 3, 0.00,60.00,WinterDesignDay
31,20639709.22005771
831,20639709.22005771
1043,1871364.7300700797
2,1,12,21, 0, 4, 0.00,60.00,WinterDesignDay
31,19108427.89207293
831,19108427.892072929
1043,942142.4070199278
2,1,12,21, 0, 5, 0.00,60.00,WinterDesignDay
31,20657186.865460256
831,20657186.865460248
1043,1888576.903069351
2,1,12,21, 0, 6, 0.00,60.00,WinterDesignDay
31,19110003.305003667
831,19110003.305003667
1043,945240.0367201965
2,1,12,21, 0, 7, 0.00,60.00,WinterDesignDay
31,21840217.715471247
831,21840217.715471247
1043,1891228.7604687759
2,1,12,21, 0, 8, 0.00,60.00,WinterDesignDay
31,18617590.43860144
831,18617590.43860144
1043,773610.9982917484
2,1,12,21, 0, 9, 0.00,60.00,WinterDesignDay
31,18947458.446778228
831,18947458.446778228
1043,1541242.148979594
2,1,12,21, 0,10, 0.00,60.00,WinterDesignDay
31,17495842.136009627
831,17495842.136009627
1043,769351.4707504462
2,1,12,21, 0,11, 0.00,60.00,WinterDesignDay
31,18948719.512261698
831,18948719.512261698
1043,1537740.7176855053
2,1,12,21, 0,12, 0.00,60.00,WinterDesignDay
31,17501727.616924086
831,17501727.61692409
1043,768613.4038212261
2,1,12,21, 0,13, 0.00,60.00,WinterDesignDay
31,18962500.54912423
831,18962500.549124227
1043,1536947.3920833758
2,1,12,21, 0,14, 0.00,60.00,WinterDesignDay
31,17515562.174287756
831,17515562.174287756
1043,768377.0085029646
2,1,12,21, 0,15, 0.00,60.00,WinterDesignDay
31,18968037.17764688
831,18968037.17764688
1043,1536615.6302070539
2,1,12,21, 0,16, 0.00,60.00,WinterDesignDay
31,17515319.127251224
831,17515319.127251224
1043,768246.9005587639
2,1,12,21, 0,17, 0.00,60.00,WinterDesignDay
31,18971561.81237249
831,18971561.81237249
1043,1536387.2877025058
2,1,12,21, 0,18, 0.00,60.00,WinterDesignDay
31,19350575.687237927
831,19350575.687237923
1043,768149.0576849913
2,1,12,21, 0,19, 0.00,60.00,WinterDesignDay
31,21868760.891149399
831,21868760.891149399
1043,1775280.5000168114
2,1,12,21, 0,20, 0.00,60.00,WinterDesignDay
31,19509205.252398284
831,19509205.25239828
1043,943800.5924136778
2,1,12,21, 0,21, 0.00,60.00,WinterDesignDay
31,21057386.83581272
831,21057386.835812719
1043,1890986.0015000317
2,1,12,21, 0,22, 0.00,60.00,WinterDesignDay
31,19511850.02509418
831,19511850.02509418
1043,946167.66988005
2,1,12,21, 0,23, 0.00,60.00,WinterDesignDay
31,21048265.065694035
831,21048265.06569403
1043,1892753.2794398755
2,1,12,21, 0,24, 0.00,60.00,WinterDesignDay
31,19501235.44675424
831,19501235.44675424
1043,946451.4711823847
1,TUCSON-DAVIS-MONTHAN.AFB_AZ_USA ANN CLG .4% CONDNS DB=>MWB,  33.45,-111.98,  -7.00, 337.00
2,1, 7,21, 0, 1, 0.00,60.00,SummerDesignDay
31,42835568.74903869
831,42835568.7490387
1043,0.0
2,1, 7,21, 0, 2, 0.00,60.00,SummerDesignDay
31,40869919.3768421
831,40869919.376842107
1043,0.0
2,1, 7,21, 0, 3, 0.00,60.00,SummerDesignDay
31,42377701.3556118
831,42377701.3556118
1043,0.0
2,1, 7,21, 0, 4, 0.00,60.00,SummerDesignDay
31,40387196.28822905
831,40387196.28822905
1043,0.0
2,1, 7,21, 0, 5, 0.00,60.00,SummerDesignDay
31,42993998.465536978
831,42993998.465536978
1043,0.0
2,1, 7,21, 0, 6, 0.00,60.00,SummerDesignDay
31,40351383.7299935
831,40351383.7299935
1043,0.0
2,1, 7,21, 0, 7, 0.00,60.00,SummerDesignDay
31,48495448.269769597
831,48495448.26976959
1043,0.0
2,1, 7,21, 0, 8, 0.00,60.00,SummerDesignDay
31,48250252.58982653
831,48250252.58982653
1043,0.0
2,1, 7,21, 0, 9, 0.00,60.00,SummerDesignDay
31,50116629.4174299
831,50116629.41742991
1043,0.0
2,1, 7,21, 0,10, 0.00,60.00,SummerDesignDay
31,52164932.471959758
831,52164932.47195978
1043,0.0
2,1, 7,21, 0,11, 0.00,60.00,SummerDesignDay
31,53982579.188006978
831,53982579.18800698
1043,0.0
2,1, 7,21, 0,12, 0.00,60.00,SummerDesignDay
31,55441662.3437425
831,55441662.34374251
1043,0.0
2,1, 7,21, 0,13, 0.00,60.00,SummerDesignDay
31,56888512.50718829
831,56888512.5071883
1043,0.0
2,1, 7,21, 0,14, 0.00,60.00,SummerDesignDay
31,57794495.33798943
831,57794495.337989438
1043,0.0
2,1, 7,21, 0,15, 0.00,60.00,SummerDesignDay
31,58612318.82354784
831,58612318.82354784
1043,0.0
2,1, 7,21, 0,16, 0.00,60.00,SummerDesignDay
31,58887929.41391302
831,58887929.41391302
1043,0.0
2,1, 7,21, 0,17, 0.00,60.00,SummerDesignDay
31,58174735.92225408
831,58174735.92225409
1043,0.0
2,1, 7,21, 0,18, 0.00,60.00,SummerDesignDay
31,57141825.62311038
831,57141825.62311038
1043,0.0
2,1, 7,21, 0,19, 0.00,60.00,SummerDesignDay
31,56138849.70836538
831,56138849.708365399
1043,0.0
2,1, 7,21, 0,20, 0.00,60.00,SummerDesignDay
31,49174975.58187175
831,49174975.58187175
1043,0.0
2,1, 7,21, 0,21, 0.00,60.00,SummerDesignDay
31,45682611.735635127
831,45682611.735635127
1043,0.0
2,1, 7,21, 0,22, 0.00,60.00,SummerDesignDay
31,47729378.14929736
831,47729378.14929736
1043,0.0
2,1, 7,21, 0,23, 0.00,60.00,SummerDesignDay
31,42869544.17320585
831,42869544.17320585
1043,0.0
2,1, 7,21, 0,24, 0.00,60.00,SummerDesignDay
31,44211740.42823483
831,44211740.42823483
1043,0.0
1,Phoenix Sky Harbor Intl Ap AZ USA TMY3 WMO#=722780,  33.45,-111.98,  -7.00, 337.00
2,1, 1, 1, 0, 1, 0.00,60.00,Holiday
31,5504338.596677196
831,5504338.596677196
1043,0.0
2,1, 1, 1, 0, 2, 0.00,60.00,Holiday
31,5504338.596677196
831,5504338.596677196
1043,0.0
2,1, 1, 1, 0, 3, 0.00,60.00,Holiday
31,5504338.596677196
831,5504338.596677196
1043,0.0
2,1, 1, 1, 0, 4, 0.00,60.00,Holiday
31,5504338.596677196
831,5504338.596677196
1043,0.0
2,1, 1, 1, 0, 5, 0.00,60.00,Holiday
31,5504338.596677196
831,5504338.596677196
1043,0.0
2,1, 1, 1, 0, 6, 0.00,60.00,Holiday
31,5504338.596677196
831,5504338.596677196
1043,0.0
2,1, 1, 1, 0, 7, 0.00,60.00,Holiday
31,6695938.596677196
831,6695938.596677196
1043,0.0
2,1, 1, 1, 0, 8, 0.00,60.00,Holiday
31,5595598.596677196
831,5595598.596677196
1043,0.0
2,1, 1, 1, 0, 9, 0.00,60.00,Holiday
31,4495258.596677196
831,4495258.596677197
1043,0.0
2,1, 1, 1, 0,10, 0.00,60.00,Holiday
31,4495258.596677196
831,4495258.596677197
1043,0.0
2,1, 1, 1, 0,11, 0.00,60.00,Holiday
31,4495258.596677196
831,4495258.596677196
1043,0.0
2,1, 1, 1, 0,12, 0.00,60.00,Holiday
31,4495258.596677196
831,4495258.596677196
1043,0.0
2,1, 1, 1, 0,13, 0.00,60.00,Holiday
31,4495258.596677196
831,4495258.596677197
1043,0.0
2,1, 1, 1, 0,14, 0.00,60.00,Holiday
31,4495258.596677196
831,4495258.596677196
1043,0.0
2,1, 1, 1, 0,15, 0.00,60.00,Holiday
31,4495258.596677196
831,4495258.596677196
1043,0.0
2,1, 1, 1, 0,16, 0.00,60.00,Holiday
31,4495258.596677196
831,4495258.596677196
1043,0.0
2,1, 1, 1, 0,17, 0.00,60.00,Holiday
31,4495258.596677196
831,4495258.596677197
1043,0.0
2,1, 1, 1, 0,18, 0.00,60.00,Holiday
31,5962378.596677196
831,5962378.596677196
1043,0.0
2,1, 1, 1, 0,19, 0.00,60.00,Holiday
31,6695938.596677196
831,6695938.596677196
1043,0.0
2,1, 1, 1, 0,20, 0.00,60.00,Holiday
31,5894038.596677196
831,5894038.596677195
1043,0.0
2,1, 1, 1, 0,21, 0.00,60.00,Holiday
31,5894038.596677196
831,5894038.596677196
1043,0.0
2,1, 1, 1, 0,22, 0.00,60.00,Holiday
31,5894038.596677196
831,5894038.596677196
1043,0.0
2,1, 1, 1, 0,23, 0.00,60.00,Holiday
31,5894038.596677196
831,5894038.596677196
1043,0.0
2,1, 1, 1, 0,24, 0.00,60.00,Holiday
31,5894038.596677196
831,5894038.596677196
1043,0.0
2,2, 1, 2, 0, 1, 0.00,60.00,Monday
31,8569604.825749658
831,8569604.825749658
1043,0.0
2,2, 1, 2, 0, 2, 0.00,60.00,Monday
31,8569604.825749658
831,8569604.825749658
1043,0.0
2,2, 1, 2, 0, 3, 0.00,60.00,Monday
31,8569604.825749658
831,8569604.825749658
1043,0.0
2,2, 1, 2, 0, 4, 0.00,60.00,Monday
31,8569604.825749658
831,8569604.825749658
1043,0.0
2,2, 1, 2, 0, 5, 0.00,60.00,Monday
31,8569604.825749658
831,8569604.825749658
1043,0.0
2,2, 1, 2, 0, 6, 0.00,60.00,Monday
31,8569604.825749658
831,8569604.825749658
1043,0.0
2,2, 1, 2, 0, 7, 0.00,60.00,Monday
31,21731787.631609024
831,21731787.63160902
1043,0.0
2,2, 1, 2, 0, 8, 0.00,60.00,Monday
31,23577787.70225493
831,23577787.70225493
1043,0.0
2,2, 1, 2, 0, 9, 0.00,60.00,Monday
31,30921464.71532137
831,30921464.715321375
1043,0.0
2,2, 1, 2, 0,10, 0.00,60.00,Monday
31,30212600.340495275
831,30212600.34049527
1043,0.0
2,2, 1, 2, 0,11, 0.00,60.00,Monday
31,30688974.281710097
831,30688974.281710097
1043,0.0
2,2, 1, 2, 0,12, 0.00,60.00,Monday
31,31387299.941139
831,31387299.941139006
1043,0.0
2,2, 1, 2, 0,13, 0.00,60.00,Monday
31,28623726.59112296
831,28623726.591122964
1043,0.0
2,2, 1, 2, 0,14, 0.00,60.00,Monday
31,31930358.297951864
831,31930358.29795187
1043,0.0
2,2, 1, 2, 0,15, 0.00,60.00,Monday
31,32640109.18580692
831,32640109.18580692
1043,0.0
2,2, 1, 2, 0,16, 0.00,60.00,Monday
31,33075478.301469927
831,33075478.301469927
1043,0.0
2,2, 1, 2, 0,17, 0.00,60.00,Monday
31,33552970.26778325
831,33552970.267783256
1043,0.0
2,2, 1, 2, 0,18, 0.00,60.00,Monday
31,23702556.435786178
831,23702556.435786174
1043,0.0
2,2, 1, 2, 0,19, 0.00,60.00,Monday
31,18337448.453109426
831,18337448.453109426
1043,0.0
2,2, 1, 2, 0,20, 0.00,60.00,Monday
31,10953154.258345897
831,10953154.258345895
1043,0.0
2,2, 1, 2, 0,21, 0.00,60.00,Monday
31,9737784.395628443
831,9737784.395628443
1043,0.0
2,2, 1, 2, 0,22, 0.00,60.00,Monday
31,9737784.395628443
831,9737784.395628443
1043,0.0
2,2, 1, 2, 0,23, 0.00,60.00,Monday
31,8643951.519120457
831,8643951.519120455
1043,0.0
2,2, 1, 2, 0,24, 0.00,60.00,Monday
31,6297449.08321209
831,6297449.08321209
1043,0.0
2,3, 1, 3, 0, 1, 0.00,60.00,Tuesday
31,8569604.825749658
831,8569604.825749658
1043,0.0
2,3, 1, 3, 0, 2, 0.00,60.00,Tuesday
31,8569604.825749658
831,8569604.825749658
1043,0.0
2,3, 1, 3, 0, 3, 0.00,60.00,Tuesday
31,8569604.825749658
831,8569604.825749658
1043,0.0
2,3, 1, 3, 0, 4, 0.00,60.00,Tuesday
31,8569604.825749658
831,8569604.825749658
1043,0.0
2,3, 1, 3, 0, 5, 0.00,60.00,Tuesday
31,8569604.825749658
831,8569604.825749658
1043,0.0
2,3, 1, 3, 0, 6, 0.00,60.00,Tuesday
31,8569604.825749658
831,8569604.825749658
1043,0.0
2,3, 1, 3, 0, 7, 0.00,60.00,Tuesday
31,21513196.406846405
831,21513196.406846398
1043,0.0
2,3, 1, 3, 0, 8, 0.00,60.00,Tuesday
31,23955754.045858008
831,23955754.045858005
1043,0.0
2,3, 1, 3, 0, 9, 0.00,60.00,Tuesday
31,30659548.26502969
831,30659548.26502969
1043,0.0
2,3, 1, 3, 0,10, 0.00,60.00,Tuesday
31,30260363.846808059
831,30260363.846808055
1043,0.0
2,3, 1, 3, 0,11, 0.00,60.00,Tuesday
31,30972110.628004649
831,30972110.628004649
1043,0.0
2,3, 1, 3, 0,12, 0.00,60.00,Tuesday
31,31387751.5244774
831,31387751.5244774
1043,0.0
2,3, 1, 3, 0,13, 0.00,60.00,Tuesday
31,28896568.23656229
831,28896568.236562294
1043,0.0
2,3, 1, 3, 0,14, 0.00,60.00,Tuesday
31,31961178.9040686
831,31961178.904068605
1043,0.0
2,3, 1, 3, 0,15, 0.00,60.00,Tuesday
31,32702639.087451675
831,32702639.087451675
1043,0.0
2,3, 1, 3, 0,16, 0.00,60.00,Tuesday
31,33198468.80578032
831,33198468.80578032
1043,0.0
2,3, 1, 3, 0,17, 0.00,60.00,Tuesday
31,33940277.35558683
831,33940277.35558683
1043,0.0
2,3, 1, 3, 0,18, 0.00,60.00,Tuesday
31,23911059.168827446
831,23911059.16882744
1043,0.0
2,3, 1, 3, 0,19, 0.00,60.00,Tuesday
31,18337448.453109426
831,18337448.453109426
1043,0.0
2,3, 1, 3, 0,20, 0.00,60.00,Tuesday
31,10953154.258345897
831,10953154.258345895
1043,0.0
2,3, 1, 3, 0,21, 0.00,60.00,Tuesday
31,9737784.395628443
831,9737784.395628443
1043,0.0
2,3, 1, 3, 0,22, 0.00,60.00,Tuesday
31,9737784.395628443
831,9737784.395628443
1043,0.0
2,3, 1, 3, 0,23, 0.00,60.00,Tuesday
31,8643951.519120457
831,8643951.519120455
1043,0.0
2,3, 1, 3, 0,24, 0.00,60.00,Tuesday
31,6297449.08321209
831,6297449.08321209
1043,0.0
2,4, 1, 4, 0, 1, 0.00,60.00,Wednesday
31,8569604.825749658
831,8569604.825749658
1043,0.0
2,4, 1, 4, 0, 2, 0.00,60.00,Wednesday
31,8569604.825749658
831,8569604.825749658
1043,0.0
2,4, 1, 4, 0, 3, 0.00,60.00,Wednesday
31,8569604.825749658
831,8569604.825749658
1043,0.0
2,4, 1, 4, 0, 4, 0.00,60.00,Wednesday
31,8569604.825749658
831,8569604.825749658
1043,0.0
2,4, 1, 4, 0, 5, 0.00,60.00,Wednesday
31,8569604.825749658
831,8569604.825749658
1043,0.0
2,4, 1, 4, 0, 6, 0.00,60.00,Wednesday
31,8569604.825749658
831,8569604.825749658
1043,0.0
2,4, 1, 4, 0, 7, 0.00,60.00,Wednesday
31,23095747.905171209
831,23095747.905171209
1043,0.0
2,4, 1, 4, 0, 8, 0.00,60.00,Wednesday
31,25820394.399765418
831,25820394.399765418
1043,0.0
2,4, 1, 4, 0, 9, 0.00,60.00,Wednesday
31,30588803.665207939
831,30588803.66520794
1043,0.0
2,4, 1, 4, 0,10, 0.00,60.00,Wednesday
31,30513131.658156814
831,30513131.658156817
1043,0.0
2,4, 1, 4, 0,11, 0.00,60.00,Wednesday
31,31167631.505205599
831,31167631.5052056
1043,0.0
2,4, 1, 4, 0,12, 0.00,60.00,Wednesday
31,31826228.52032293
831,31826228.52032293
1043,0.0
2,4, 1, 4, 0,13, 0.00,60.00,Wednesday
31,29656131.672613846
831,29656131.672613846
1043,0.0
2,4, 1, 4, 0,14, 0.00,60.00,Wednesday
31,33776195.45830821
831,33776195.45830821
1043,0.0
2,4, 1, 4, 0,15, 0.00,60.00,Wednesday
31,34823000.31274994
831,34823000.31274994
1043,0.0
2,4, 1, 4, 0,16, 0.00,60.00,Wednesday
31,35586426.45153692
831,35586426.45153692
1043,0.0
2,4, 1, 4, 0,17, 0.00,60.00,Wednesday
31,35705109.94360693
831,35705109.943606939
1043,0.0
2,4, 1, 4, 0,18, 0.00,60.00,Wednesday
31,24491953.714211
831,24491953.714210996
1043,0.0
2,4, 1, 4, 0,19, 0.00,60.00,Wednesday
31,18337448.453109426
831,18337448.453109426
1043,0.0
2,4, 1, 4, 0,20, 0.00,60.00,Wednesday
31,10953154.258345897
831,10953154.258345895
1043,0.0
2,4, 1, 4, 0,21, 0.00,60.00,Wednesday
31,9737784.395628443
831,9737784.395628443
1043,0.0
2,4, 1, 4, 0,22, 0.00,60.00,Wednesday
31,9737784.395628443
831,9737784.395628443
1043,0.0
2,4, 1, 4, 0,23, 0.00,60.00,Wednesday
31,8643951.519120457
831,8643951.519120455
1043,0.0
2,4, 1, 4, 0,24, 0.00,60.00,Wednesday
31,6297449.08321209
831,6297449.08321209
1043,0.0
2,5, 1, 5, 0, 1, 0.00,60.00,Thursday
31,8569604.825749658
831,8569604.825749658
1043,0.0
2,5, 1, 5, 0, 2, 0.00,60.00,Thursday
31,8569604.825749658
831,8569604.825749658
1043,0.0
2,5, 1, 5, 0, 3, 0.00,60.00,Thursday
31,8569604.825749658
831,8569604.825749658
1043,0.0
2,5, 1, 5, 0, 4, 0.00,60.00,Thursday
31,8569604.825749658
831,8569604.825749658
1043,0.0
2,5, 1, 5, 0, 5, 0.00,60.00,Thursday
31,8569604.825749658
831,8569604.825749658
1043,0.0
2,5, 1, 5, 0, 6, 0.00,60.00,Thursday
31,8569604.825749658
831,8569604.825749658
1043,0.0
2,5, 1, 5, 0, 7, 0.00,60.00,Thursday
31,22918627.947627579
831,22918627.947627579
1043,0.0
2,5, 1, 5, 0, 8, 0.00,60.00,Thursday
31,26326105.187446383
831,26326105.18744638
1043,0.0
2,5, 1, 5, 0, 9, 0.00,60.00,Thursday
31,30593368.016934754
831,30593368.016934754
1043,0.0
2,5, 1, 5, 0,10, 0.00,60.00,Thursday
31,30506758.14749116
831,30506758.147491166
1043,0.0
2,5, 1, 5, 0,11, 0.00,60.00,Thursday
31,31226661.042347365
831,31226661.042347365
1043,0.0
2,5, 1, 5, 0,12, 0.00,60.00,Thursday
31,32002303.076222034
831,32002303.076222037
1043,0.0
2,5, 1, 5, 0,13, 0.00,60.00,Thursday
31,29853437.96952805
831,29853437.96952805
1043,0.0
2,5, 1, 5, 0,14, 0.00,60.00,Thursday
31,34133920.84281421
831,34133920.84281421
1043,0.0
2,5, 1, 5, 0,15, 0.00,60.00,Thursday
31,35042544.70655348
831,35042544.70655349
1043,0.0
2,5, 1, 5, 0,16, 0.00,60.00,Thursday
31,35184954.95932094
831,35184954.95932093
1043,0.0
2,5, 1, 5, 0,17, 0.00,60.00,Thursday
31,35254508.040113698
831,35254508.0401137
1043,0.0
2,5, 1, 5, 0,18, 0.00,60.00,Thursday
31,24133589.938355928
831,24133589.938355928
1043,0.0
2,5, 1, 5, 0,19, 0.00,60.00,Thursday
31,18337448.453109426
831,18337448.453109426
1043,0.0
2,5, 1, 5, 0,20, 0.00,60.00,Thursday
31,10953154.258345897
831,10953154.258345895
1043,0.0
2,5, 1, 5, 0,21, 0.00,60.00,Thursday
31,9737784.395628443
831,9737784.395628443
1043,0.0
2,5, 1, 5, 0,22, 0.00,60.00,Thursday
31,9737784.395628443
831,9737784.395628443
1043,0.0
2,5, 1, 5, 0,23, 0.00,60.00,Thursday
31,8643951.519120457
831,8643951.519120455
1043,0.0
2,5, 1, 5, 0,24, 0.00,60.00,Thursday
31,6297449.08321209
831,6297449.08321209
1043,0.0
2,6, 1, 6, 0, 1, 0.00,60.00,Friday
31,8569604.825749658
831,8569604.825749658
1043,0.0
2,6, 1, 6, 0, 2, 0.00,60.00,Friday
31,8569604.825749658
831,8569604.825749658
1043,0.0
2,6, 1, 6, 0, 3, 0.00,60.00,Friday
31,8569604.825749658
831,8569604.825749658
1043,0.0
2,6, 1, 6, 0, 4, 0.00,60.00,Friday
31,8569604.825749658
831,8569604.825749658
1043,0.0
2,6, 1, 6, 0, 5, 0.00,60.00,Friday
31,8569604.825749658
831,8569604.825749658
1043,0.0
2,6, 1, 6, 0, 6, 0.00,60.00,Friday
31,8569604.825749658
831,8569604.825749658
1043,0.0
2,6, 1, 6, 0, 7, 0.00,60.00,Friday
31,24685331.20646582
831,24685331.206465819
1043,0.0
2,6, 1, 6, 0, 8, 0.00,60.00,Friday
31,27494982.81792586
831,27494982.817925857
1043,0.0
2,6, 1, 6, 0, 9, 0.00,60.00,Friday
31,31193325.09181636
831,31193325.091816367
1043,0.0
2,6, 1, 6, 0,10, 0.00,60.00,Friday
31,30203694.60095956
831,30203694.60095956
1043,0.0
2,6, 1, 6, 0,11, 0.00,60.00,Friday
31,30226567.470393965
831,30226567.470393968
1043,0.0
2,6, 1, 6, 0,12, 0.00,60.00,Friday
31,31127623.11677943
831,31127623.116779437
1043,0.0
2,6, 1, 6, 0,13, 0.00,60.00,Friday
31,28847093.007703034
831,28847093.007703034
1043,0.0
2,6, 1, 6, 0,14, 0.00,60.00,Friday
31,33132746.559695018
831,33132746.559695018
1043,0.0
2,6, 1, 6, 0,15, 0.00,60.00,Friday
31,34367608.0681246
831,34367608.0681246
1043,0.0
2,6, 1, 6, 0,16, 0.00,60.00,Friday
31,35057397.814993
831,35057397.814993
1043,0.0
2,6, 1, 6, 0,17, 0.00,60.00,Friday
31,35216133.8957394
831,35216133.8957394
1043,0.0
2,6, 1, 6, 0,18, 0.00,60.00,Friday
31,24338981.640414254
831,24338981.64041425
1043,0.0
2,6, 1, 6, 0,19, 0.00,60.00,Friday
31,18337448.453109426
831,18337448.453109426
1043,0.0
2,6, 1, 6, 0,20, 0.00,60.00,Friday
31,10953154.258345897
831,10953154.258345895
1043,0.0
2,6, 1, 6, 0,21, 0.00,60.00,Friday
31,9737784.395628443
831,9737784.395628443
1043,0.0
2,6, 1, 6, 0,22, 0.00,60.00,Friday
31,9737784.395628443
831,9737784.395628443
1043,0.0
2,6, 1, 6, 0,23, 0.00,60.00,Friday
31,8643951.519120457
831,8643951.519120455
1043,0.0
2,6, 1, 6, 0,24, 0.00,60.00,Friday
31,6297449.08321209
831,6297449.08321209
1043,0.0
2,7, 1, 7, 0, 1, 0.00,60.00,Saturday
31,5504338.596677196
831,5504338.596677196
1043,0.0
2,7, 1, 7, 0, 2, 0.00,60.00,Saturday
31,5504338.596677196
831,5504338.596677196
1043,0.0
2,7, 1, 7, 0, 3, 0.00,60.00,Saturday
31,5504338.596677196
831,5504338.596677196
1043,0.0
2,7, 1, 7, 0, 4, 0.00,60.00,Saturday
31,5504338.596677196
831,5504338.596677196
1043,0.0
2,7, 1, 7, 0, 5, 0.00,60.00,Saturday
31,5504338.596677196
831,5504338.596677196
1043,0.0
2,7, 1, 7, 0, 6, 0.00,60.00,Saturday
31,5504338.596677196
831,5504338.596677196
1043,0.0
2,7, 1, 7, 0, 7, 0.00,60.00,Saturday
31,6695938.596677196
831,6695938.596677196
1043,0.0
2,7, 1, 7, 0, 8, 0.00,60.00,Saturday
31,5595598.596677196
831,5595598.596677196
1043,0.0
2,7, 1, 7, 0, 9, 0.00,60.00,Saturday
31,4495258.596677196
831,4495258.596677197
1043,0.0
2,7, 1, 7, 0,10, 0.00,60.00,Saturday
31,4495258.596677196
831,4495258.596677196
1043,0.0
2,7, 1, 7, 0,11, 0.00,60.00,Saturday
31,4495258.596677196
831,4495258.596677196
1043,0.0
2,7, 1, 7, 0,12, 0.00,60.00,Saturday
31,4495258.596677196
831,4495258.596677196
1043,0.0
2,7, 1, 7, 0,13, 0.00,60.00,Saturday
31,4495258.596677196
831,4495258.596677197
1043,0.0
2,7, 1, 7, 0,14, 0.00,60.00,Saturday
31,4495258.596677196
831,4495258.596677196
1043,0.0
2,7, 1, 7, 0,15, 0.00,60.00,Saturday
31,4495258.596677196
831,4495258.596677196
1043,0.0
2,7, 1, 7, 0,16, 0.00,60.00,Saturday
31,4495258.596677196
831,4495258.596677196
1043,0.0
2,7, 1, 7, 0,17, 0.00,60.00,Saturday
31,4495258.596677196
831,4495258.596677197
1043,0.0
2,7, 1, 7, 0,18, 0.00,60.00,Saturday
31,5595598.596677196
831,5595598.596677196
1043,0.0
2,7, 1, 7, 0,19, 0.00,60.00,Saturday
31,6695938.596677196
831,6695938.596677196
1043,0.0
2,7, 1, 7, 0,20, 0.00,60.00,Saturday
31,5894038.596677196
831,5894038.596677195
1043,0.0
2,7, 1, 7, 0,21, 0.00,60.00,Saturday
31,5894038.596677196
831,5894038.596677196
1043,0.0
2,7, 1, 7, 0,22, 0.00,60.00,Saturday
31,5894038.596677196
831,5894038.596677196
1043,0.0
2,7, 1, 7, 0,23, 0.00,60.00,Saturday
31,5894038.596677196
831,5894038.596677196
1043,0.0
2,7, 1, 7, 0,24, 0.00,60.00,Saturday
31,5894038.596677196
831,5894038.596677196
1043,0.0
2,8, 1, 8, 0, 1, 0.00,60.00,Sunday
31,5504338.596677196
831,5504338.596677196
1043,0.0
2,8, 1, 8, 0, 2, 0.00,60.00,Sunday
31,5504338.596677196
831,5504338.596677196
1043,0.0
2,8, 1, 8, 0, 3, 0.00,60.00,Sunday
31,5504338.596677196
831,5504338.596677196
1043,0.0
2,8, 1, 8, 0, 4, 0.00,60.00,Sunday
31,5504338.596677196
831,5504338.596677196
1043,0.0
2,8, 1, 8, 0, 5, 0.00,60.00,Sunday
31,5504338.596677196
831,5504338.596677196
1043,0.0
2,8, 1, 8, 0, 6, 0.00,60.00,Sunday
31,5504338.596677196
831,5504338.596677196
1043,0.0
2,8, 1, 8, 0, 7, 0.00,60.00,Sunday
31,6695938.596677196
831,6695938.596677196
1043,0.0
2,8, 1, 8, 0, 8, 0.00,60.00,Sunday
31,5595598.596677196
831,5595598.596677196
1043,0.0
2,8, 1, 8, 0, 9, 0.00,60.00,Sunday
31,4495258.596677196
831,4495258.596677196
1043,0.0
2,8, 1, 8, 0,10, 0.00,60.00,Sunday
31,4495258.596677196
831,4495258.596677197
1043,0.0
2,8, 1, 8, 0,11, 0.00,60.00,Sunday
31,4495258.596677196
831,4495258.596677197
1043,0.0
2,8, 1, 8, 0,12, 0.00,60.00,Sunday
31,4495258.596677196
831,4495258.596677197
1043,0.0
2,8, 1, 8, 0,13, 0.00,60.00,Sunday
31,4495258.596677196
831,4495258.596677197
1043,0.0
2,8, 1, 8, 0,14, 0.00,60.00,Sunday
31,4495258.596677196
831,4495258.596677196
1043,0.0
2,8, 1, 8, 0,15, 0.00,60.00,Sunday
31,4495258.596677196
831,4495258.596677196
1043,0.0
2,8, 1, 8, 0,16, 0.00,60.00,Sunday
31,4495258.596677196
831,4495258.596677197
1043,0.0
2,8, 1, 8, 0,17, 0.00,60.00,Sunday
31,4495258.596677196
831,4495258.596677196
1043,0.0
2,8, 1, 8, 0,18, 0.00,60.00,Sunday
31,5595598.596677196
831,5595598.596677196
1043,0.0
2,8, 1, 8, 0,19, 0.00,60.00,Sunday
31,6695938.596677196
831,6695938.596677195
1043,0.0
2,8, 1, 8, 0,20, 0.00,60.00,Sunday
31,5894038.596677196
831,5894038.596677195
1043,0.0
2,8, 1, 8, 0,21, 0.00,60.00,Sunday
31,5894038.596677196
831,5894038.596677196
1043,0.0
2,8, 1, 8, 0,22, 0.00,60.00,Sunday
31,5894038.596677196
831,5894038.596677196
1043,0.0
2,8, 1, 8, 0,23, 0.00,60.00,Sunday
31,5894038.596677196
831,5894038.596677196
1043,0.0
2,8, 1, 8, 0,24, 0.00,60.00,Sunday
31,5894038.596677196
831,5894038.596677196
1043,0.0
2,9, 1, 9, 0, 1, 0.00,60.00,Monday
31,8569604.825749658
831,8569604.825749658
1043,0.0
2,9, 1, 9, 0, 2, 0.00,60.00,Monday
31,8569604.825749658
831,8569604.825749658
1043,0.0
2,9, 1, 9, 0, 3, 0.00,60.00,Monday
31,8569604.825749658
831,8569604.825749658
1043,0.0
2,9, 1, 9, 0, 4, 0.00,60.00,Monday
31,8569604.825749658
831,8569604.825749658
1043,0.0
2,9, 1, 9, 0, 5, 0.00,60.00,Monday
31,8569604.825749658
831,8569604.825749658
1043,0.0
2,9, 1, 9, 0, 6, 0.00,60.00,Monday
31,8569604.825749658
831,8569604.825749658
1043,0.0
2,9, 1, 9, 0, 7, 0.00,60.00,Monday
31,19757215.50830263
831,19757215.50830262
1043,0.0
2,9, 1, 9, 0, 8, 0.00,60.00,Monday
31,22419323.958014285
831,22419323.95801428
1043,0.0
2,9, 1, 9, 0, 9, 0.00,60.00,Monday
31,30644427.29983042
831,30644427.299830427
1043,0.0
2,9, 1, 9, 0,10, 0.00,60.00,Monday
31,30322433.05310937
831,30322433.053109368
1043,0.0
2,9, 1, 9, 0,11, 0.00,60.00,Monday
31,31707910.541385898
831,31707910.541385898
1043,0.0
2,9, 1, 9, 0,12, 0.00,60.00,Monday
31,32797261.24957704
831,32797261.24957704
1043,0.0
2,9, 1, 9, 0,13, 0.00,60.00,Monday
31,30953276.13260068
831,30953276.13260068
1043,0.0
2,9, 1, 9, 0,14, 0.00,60.00,Monday
31,34785231.74802775
831,34785231.74802775
1043,0.0
2,9, 1, 9, 0,15, 0.00,60.00,Monday
31,35739206.86108608
831,35739206.861086089
1043,0.0
2,9, 1, 9, 0,16, 0.00,60.00,Monday
31,36055345.1638576
831,36055345.16385761
1043,0.0
2,9, 1, 9, 0,17, 0.00,60.00,Monday
31,36328050.42949548
831,36328050.42949549
1043,0.0
2,9, 1, 9, 0,18, 0.00,60.00,Monday
31,25212704.247368069
831,25212704.247368069
1043,0.0
2,9, 1, 9, 0,19, 0.00,60.00,Monday
31,18337448.453109426
831,18337448.453109426
1043,0.0
2,9, 1, 9, 0,20, 0.00,60.00,Monday
31,10953154.258345897
831,10953154.258345895
1043,0.0
2,9, 1, 9, 0,21, 0.00,60.00,Monday
31,9737784.395628443
831,9737784.395628443
1043,0.0
2,9, 1, 9, 0,22, 0.00,60.00,Monday
31,9737784.395628443
831,9737784.395628443
1043,0.0
2,9, 1, 9, 0,23, 0.00,60.00,Monday
31,8643951.519120457
831,8643951.519120455
1043,0.0
2,9, 1, 9, 0,24, 0.00,60.00,Monday
31,6297449.08321209
831,6297449.08321209
1043,0.0
2,10, 1,10, 0, 1, 0.00,60.00,Tuesday
31,8569604.825749658
831,8569604.825749658
1043,0.0
2,10, 1,10, 0, 2, 0.00,60.00,Tuesday
31,8569604.825749658
831,8569604.825749658
1043,0.0
2,10, 1,10, 0, 3, 0.00,60.00,Tuesday
31,8569604.825749658
831,8569604.825749658
1043,0.0
2,10, 1,10, 0, 4, 0.00,60.00,Tuesday
31,8569604.825749658
831,8569604.825749658
1043,0.0
2,10, 1,10, 0, 5, 0.00,60.00,Tuesday
31,8569604.825749658
831,8569604.825749658
1043,0.0
2,10, 1,10, 0, 6, 0.00,60.00,Tuesday
31,8569604.825749658
831,8569604.825749658
1043,0.0
2,10, 1,10, 0, 7, 0.00,60.00,Tuesday
31,19219709.81503036
831,19219709.81503035
1043,0.0
2,10, 1,10, 0, 8, 0.00,60.00,Tuesday
31,21683772.4035811
831,21683772.403581099
1043,0.0
2,10, 1,10, 0, 9, 0.00,60.00,Tuesday
31,31515070.85526405
831,31515070.855264054
1043,0.0
2,10, 1,10, 0,10, 0.00,60.00,Tuesday
31,30840789.333449074
831,30840789.33344908
1043,0.0
2,10, 1,10, 0,11, 0.00,60.00,Tuesday
31,30822161.550422208
831,30822161.550422208
1043,0.0
2,10, 1,10, 0,12, 0.00,60.00,Tuesday
31,32750285.189819985
831,32750285.189819985
1043,0.0
2,10, 1,10, 0,13, 0.00,60.00,Tuesday
31,31729730.560876408
831,31729730.560876408
1043,0.0
2,10, 1,10, 0,14, 0.00,60.00,Tuesday
31,36065188.251512769
831,36065188.251512769
1043,0.0
2,10, 1,10, 0,15, 0.00,60.00,Tuesday
31,36622000.56046068
831,36622000.56046068
1043,0.0
2,10, 1,10, 0,16, 0.00,60.00,Tuesday
31,37064426.46295232
831,37064426.46295233
1043,0.0
2,10, 1,10, 0,17, 0.00,60.00,Tuesday
31,36439033.43205278
831,36439033.43205279
1043,0.0
2,10, 1,10, 0,18, 0.00,60.00,Tuesday
31,23926801.90679656
831,23926801.906796554
1043,0.0
2,10, 1,10, 0,19, 0.00,60.00,Tuesday
31,18337448.453109426
831,18337448.453109426
1043,0.0
2,10, 1,10, 0,20, 0.00,60.00,Tuesday
31,10953154.258345897
831,10953154.258345895
1043,0.0
2,10, 1,10, 0,21, 0.00,60.00,Tuesday
31,9737784.395628443
831,9737784.395628443
1043,0.0
2,10, 1,10, 0,22, 0.00,60.00,Tuesday
31,9737784.395628443
831,9737784.395628443
1043,0.0
2,10, 1,10, 0,23, 0.00,60.00,Tuesday
31,8643951.519120457
831,8643951.519120455
1043,0.0
2,10, 1,10, 0,24, 0.00,60.00,Tuesday
31,6297449.08321209
831,6297449.08321209
1043,0.0
2,11, 1,11, 0, 1, 0.00,60.00,Wednesday
31,8569604.825749658
831,8569604.825749658
1043,0.0
2,11, 1,11, 0, 2, 0.00,60.00,Wednesday
31,8569604.825749658
831,8569604.825749658
1043,0.0
2,11, 1,11, 0, 3, 0.00,60.00,Wednesday
31,8569604.825749658
831,8569604.825749658
1043,0.0
2,11, 1,11, 0, 4, 0.00,60.00,Wednesday
31,8569604.825749658
831,8569604.825749658
1043,0.0
2,11, 1,11, 0, 5, 0.00,60.00,Wednesday
31,8569604.825749658
831,8569604.825749658
1043,0.0
2,11, 1,11, 0, 6, 0.00,60.00,Wednesday
31,8569604.825749658
831,8569604.825749658
1043,0.0
2,11, 1,11, 0, 7, 0.00,60.00,Wednesday
31,19592590.490194374
831,19592590.490194374
1043,0.0
2,11, 1,11, 0, 8, 0.00,60.00,Wednesday
31,22029603.884115038
831,22029603.884115034
1043,0.0
2,11, 1,11, 0, 9, 0.00,60.00,Wednesday
31,30572623.591750359
831,30572623.591750359
1043,0.0
2,11, 1,11, 0,10, 0.00,60.00,Wednesday
31,31522240.05154913
831,31522240.05154913
1043,0.0
2,11, 1,11, 0,11, 0.00,60.00,Wednesday
31,33114321.42660551
831,33114321.426605517
1043,0.0
2,11, 1,11, 0,12, 0.00,60.00,Wednesday
31,34702904.74591286
831,34702904.74591286
1043,0.0
2,11, 1,11, 0,13, 0.00,60.00,Wednesday
31,33380652.590322123
831,33380652.590322123
1043,0.0
2,11, 1,11, 0,14, 0.00,60.00,Wednesday
31,36931812.81638649
831,36931812.81638649
1043,0.0
2,11, 1,11, 0,15, 0.00,60.00,Wednesday
31,37765821.225301239
831,37765821.225301239
1043,0.0
2,11, 1,11, 0,16, 0.00,60.00,Wednesday
31,38343986.737674999
831,38343986.737674999
1043,0.0
2,11, 1,11, 0,17, 0.00,60.00,Wednesday
31,38563696.14599502
831,38563696.14599502
1043,0.0
2,11, 1,11, 0,18, 0.00,60.00,Wednesday
31,26936882.84563193
831,26936882.84563193
1043,0.0
2,11, 1,11, 0,19, 0.00,60.00,Wednesday
31,18337448.453109426
831,18337448.453109426
1043,0.0
2,11, 1,11, 0,20, 0.00,60.00,Wednesday
31,10953154.258345897
831,10953154.258345895
1043,0.0
2,11, 1,11, 0,21, 0.00,60.00,Wednesday
31,9737784.395628443
831,9737784.395628443
1043,0.0
2,11, 1,11, 0,22, 0.00,60.00,Wednesday
31,9737784.395628443
831,9737784.395628443
1043,0.0
2,11, 1,11, 0,23, 0.00,60.00,Wednesday
31,8643951.519120457
831,8643951.519120455
1043,0.0
2,11, 1,11, 0,24, 0.00,60.00,Wednesday
31,6297449.08321209
831,6297449.08321209
1043,0.0
2,12, 1,12, 0, 1, 0.00,60.00,Thursday
31,8569604.825749658
831,8569604.825749658
1043,0.0
2,12, 1,12, 0, 2, 0.00,60.00,Thursday
31,8569604.825749658
831,8569604.825749658
1043,0.0
2,12, 1,12, 0, 3, 0.00,60.00,Thursday
31,8569604.825749658
831,8569604.825749658
1043,0.0
2,12, 1,12, 0, 4, 0.00,60.00,Thursday
31,8569604.825749658
831,8569604.825749658
1043,0.0
2,12, 1,12, 0, 5, 0.00,60.00,Thursday
31,8569604.825749658
831,8569604.825749658
1043,0.0
2,12, 1,12, 0, 6, 0.00,60.00,Thursday
31,8569604.825749658
831,8569604.825749658
1043,0.0
2,12, 1,12, 0, 7, 0.00,60.00,Thursday
31,20572871.93922053
831,20572871.93922053
1043,0.0