Program Version,EnergyPlus, Version 8.6.0-198c6a3cff, YMD=2019.03.03 18:58
1,5,Environment Title[],Latitude[deg],Longitude[deg],Time Zone[],Elevation[m]
2,6,Day of Simulation[],Month[],Day of Month[],DST Indicator[1=yes 0=no],Hour[],StartMinute[],EndMinute[],DayType
3,3,Cumulative Day of Simulation[],Month[],Day of Month[],DST Indicator[1=yes 0=no],DayType  ! When Daily Meters Requested
4,2,Cumulative Days of Simulation[],Month[]  ! When Monthly Meters Requested
5,1,Cumulative Days of Simulation[] ! When Run Period Meters Requested
31,1,Electricity:Facility [J] !Hourly
831,1,ElectricityNet:Facility [J] !Hourly
1043,1,Gas:Facility [J] !Hourly
End of Data Dictionary
1,BUFFALO.NIAGARA.INTL.AP_NY_USA ANN HTG 99.6% CONDNS DB,  41.98, -87.92,  -6.00, 201.00
2,1, 1,21, 0, 1, 0.00,60.00,WinterDesignDay
31,7924126.00565505
831,7924126.00565505
1043,40677220.43107523
2,1, 1,21, 0, 2, 0.00,60.00,WinterDesignDay
31,7627266.341766913
831,7627266.341766913
1043,33803568.44062329
2,1, 1,21, 0, 3, 0.00,60.00,WinterDesignDay
31,8158075.308437213
831,8158075.308437213
1043,41190646.92813944
2,1, 1,21, 0, 4, 0.00,60.00,WinterDesignDay
31,7627266.341766913
831,7627266.341766913
1043,33934538.51775529
2,1, 1,21, 0, 5, 0.00,60.00,WinterDesignDay
31,8158075.308437213
831,8158075.308437213
1043,41257642.08259705
2,1, 1,21, 0, 6, 0.00,60.00,WinterDesignDay
31,7627266.341766913
831,7627266.341766913
1043,33958999.53898454
2,1, 1,21, 0, 7, 0.00,60.00,WinterDesignDay
31,9349675.308437214
831,9349675.308437214
1043,41274275.656331989
2,1, 1,21, 0, 8, 0.00,60.00,WinterDesignDay
31,6984966.34182919
831,6984966.34182919
1043,28333957.109167696
2,1, 1,21, 0, 9, 0.00,60.00,WinterDesignDay
31,7148995.308499491
831,7148995.308499489
1043,33621066.10454068
2,1, 1,21, 0,10, 0.00,60.00,WinterDesignDay
31,6618186.34182919
831,6618186.34182919
1043,28210201.52400884
2,1, 1,21, 0,11, 0.00,60.00,WinterDesignDay
31,7148995.308499491
831,7148995.308499489
1043,33525178.299456076
2,1, 1,21, 0,12, 0.00,60.00,WinterDesignDay
31,6618186.34182919
831,6618186.34182919
1043,28201411.890720238
2,1, 1,21, 0,13, 0.00,60.00,WinterDesignDay
31,7148995.308499491
831,7148995.308499489
1043,33555655.99440476
2,1, 1,21, 0,14, 0.00,60.00,WinterDesignDay
31,6618186.34182919
831,6618186.34182919
1043,28223291.395350487
2,1, 1,21, 0,15, 0.00,60.00,WinterDesignDay
31,7148995.308499491
831,7148995.308499489
1043,33489502.953702466
2,1, 1,21, 0,16, 0.00,60.00,WinterDesignDay
31,6618186.34182919
831,6618186.34182919
1043,28162547.28426482
2,1, 1,21, 0,17, 0.00,60.00,WinterDesignDay
31,7882555.308499491
831,7882555.308499489
1043,33510648.387585518
2,1, 1,21, 0,18, 0.00,60.00,WinterDesignDay
31,8818866.34182919
831,8818866.34182919
1043,28138003.57051413
2,1, 1,21, 0,19, 0.00,60.00,WinterDesignDay
31,9349675.308499489
831,9349675.308499489
1043,40307356.77568774
2,1, 1,21, 0,20, 0.00,60.00,WinterDesignDay
31,8016966.34182919
831,8016966.34182919
1043,33846324.150054957
2,1, 1,21, 0,21, 0.00,60.00,WinterDesignDay
31,8547775.30849949
831,8547775.308499489
1043,41219558.94458407
2,1, 1,21, 0,22, 0.00,60.00,WinterDesignDay
31,8016966.34182919
831,8016966.34182919
1043,33955036.62615224
2,1, 1,21, 0,23, 0.00,60.00,WinterDesignDay
31,8547775.308437214
831,8547775.308437214
1043,41252323.858076747
2,1, 1,21, 0,24, 0.00,60.00,WinterDesignDay
31,8016966.341766913
831,8016966.341766913
1043,33964551.3287337
1,BUFFALO.NIAGARA.INTL.AP_NY_USA ANN CLG .4% CONDNS DB=>MWB,  41.98, -87.92,  -6.00, 201.00
2,1, 7,21, 0, 1, 0.00,60.00,SummerDesignDay
31,39921501.54555096
831,39921501.54555095
1043,0.0
2,1, 7,21, 0, 2, 0.00,60.00,SummerDesignDay
31,38583722.83709224
831,38583722.837092239
1043,0.0
2,1, 7,21, 0, 3, 0.00,60.00,SummerDesignDay
31,39812033.115305948
831,39812033.115305948
1043,0.0
2,1, 7,21, 0, 4, 0.00,60.00,SummerDesignDay
31,38318026.247601848
831,38318026.24760184
1043,0.0
2,1, 7,21, 0, 5, 0.00,60.00,SummerDesignDay
31,39035653.72688648
831,39035653.72688648
1043,0.0
2,1, 7,21, 0, 6, 0.00,60.00,SummerDesignDay
31,36710108.05974686
831,36710108.05974687
1043,0.0
2,1, 7,21, 0, 7, 0.00,60.00,SummerDesignDay
31,43564060.30655503
831,43564060.306555029
1043,0.0
2,1, 7,21, 0, 8, 0.00,60.00,SummerDesignDay
31,44041734.5084681
831,44041734.5084681
1043,0.0
2,1, 7,21, 0, 9, 0.00,60.00,SummerDesignDay
31,45140546.42503506
831,45140546.42503505
1043,0.0
2,1, 7,21, 0,10, 0.00,60.00,SummerDesignDay
31,46437991.57081288
831,46437991.57081288
1043,0.0
2,1, 7,21, 0,11, 0.00,60.00,SummerDesignDay
31,47249646.39024366
831,47249646.39024366
1043,0.0
2,1, 7,21, 0,12, 0.00,60.00,SummerDesignDay
31,47837110.75051968
831,47837110.75051968
1043,0.0
2,1, 7,21, 0,13, 0.00,60.00,SummerDesignDay
31,48489618.10069725
831,48489618.10069724
1043,0.0
2,1, 7,21, 0,14, 0.00,60.00,SummerDesignDay
31,49172732.20238668
831,49172732.20238667
1043,0.0
2,1, 7,21, 0,15, 0.00,60.00,SummerDesignDay
31,49489438.85376542
831,49489438.85376541
1043,0.0
2,1, 7,21, 0,16, 0.00,60.00,SummerDesignDay
31,49408016.46227471
831,49408016.4622747
1043,0.0
2,1, 7,21, 0,17, 0.00,60.00,SummerDesignDay
31,49152598.150659147
831,49152598.150659147
1043,0.0
2,1, 7,21, 0,18, 0.00,60.00,SummerDesignDay
31,48823141.04640267
831,48823141.046402659
1043,0.0
2,1, 7,21, 0,19, 0.00,60.00,SummerDesignDay
31,48846681.713824909
831,48846681.7138249
1043,0.0
2,1, 7,21, 0,20, 0.00,60.00,SummerDesignDay
31,43813781.72721586
831,43813781.72721586
1043,0.0
2,1, 7,21, 0,21, 0.00,60.00,SummerDesignDay
31,41278949.36429924
831,41278949.36429924
1043,0.0
2,1, 7,21, 0,22, 0.00,60.00,SummerDesignDay
31,43011928.79252846
831,43011928.79252846
1043,0.0
2,1, 7,21, 0,23, 0.00,60.00,SummerDesignDay
31,39774040.43245201
831,39774040.432452
1043,0.0
2,1, 7,21, 0,24, 0.00,60.00,SummerDesignDay
31,40959590.529873389
831,40959590.529873389
1043,0.0
1,Chicago Ohare Intl Ap IL USA TMY3 WMO#=725300,  41.98, -87.92,  -6.00, 201.00
2,1, 1, 1, 0, 1, 0.00,60.00,Holiday
31,6404338.596677196
831,6404338.596677196
1043,0.0
2,1, 1, 1, 0, 2, 0.00,60.00,Holiday
31,6404338.596677196
831,6404338.596677196
1043,0.0
2,1, 1, 1, 0, 3, 0.00,60.00,Holiday
31,6404338.596677196
831,6404338.596677196
1043,0.0
2,1, 1, 1, 0, 4, 0.00,60.00,Holiday
31,6404338.596677196
831,6404338.596677196
1043,0.0
2,1, 1, 1, 0, 5, 0.00,60.00,Holiday
31,6404338.596677196
831,6404338.596677196
1043,0.0
2,1, 1, 1, 0, 6, 0.00,60.00,Holiday
31,6404338.596677196
831,6404338.596677196
1043,0.0
2,1, 1, 1, 0, 7, 0.00,60.00,Holiday
31,7595938.596677196
831,7595938.596677195
1043,0.0
2,1, 1, 1, 0, 8, 0.00,60.00,Holiday
31,6475317.458879041
831,6475317.458879041
1043,0.0
2,1, 1, 1, 0, 9, 0.00,60.00,Holiday
31,5395258.596677196
831,5395258.596677196
1043,0.0
2,1, 1, 1, 0,10, 0.00,60.00,Holiday
31,5395258.596677196
831,5395258.596677196
1043,0.0
2,1, 1, 1, 0,11, 0.00,60.00,Holiday
31,5395258.596677196
831,5395258.596677196
1043,0.0
2,1, 1, 1, 0,12, 0.00,60.00,Holiday
31,5395258.596677196
831,5395258.596677196
1043,0.0
2,1, 1, 1, 0,13, 0.00,60.00,Holiday
31,5395258.596677196
831,5395258.596677196
1043,0.0
2,1, 1, 1, 0,14, 0.00,60.00,Holiday
31,5395258.596677196
831,5395258.596677196
1043,0.0
2,1, 1, 1, 0,15, 0.00,60.00,Holiday
31,5395258.596677196
831,5395258.596677196
1043,0.0
2,1, 1, 1, 0,16, 0.00,60.00,Holiday
31,5395258.596677196
831,5395258.596677196
1043,0.0
2,1, 1, 1, 0,17, 0.00,60.00,Holiday
31,6862378.596677196
831,6862378.596677195
1043,0.0
2,1, 1, 1, 0,18, 0.00,60.00,Holiday
31,7595938.596677196
831,7595938.596677195
1043,0.0
2,1, 1, 1, 0,19, 0.00,60.00,Holiday
31,7595938.596677196
831,7595938.596677195
1043,0.0
2,1, 1, 1, 0,20, 0.00,60.00,Holiday
31,6794038.596677196
831,6794038.596677196
1043,0.0
2,1, 1, 1, 0,21, 0.00,60.00,Holiday
31,6794038.596677196
831,6794038.596677196
1043,0.0
2,1, 1, 1, 0,22, 0.00,60.00,Holiday
31,6794038.596677196
831,6794038.596677196
1043,0.0
2,1, 1, 1, 0,23, 0.00,60.00,Holiday
31,6794038.596677196
831,6794038.596677196
1043,0.0
2,1, 1, 1, 0,24, 0.00,60.00,Holiday
31,6794038.596677196
831,6794038.596677196
1043,0.0
2,2, 1, 2, 0, 1, 0.00,60.00,Monday
31,9469604.825749658
831,9469604.825749658
1043,0.0
2,2, 1, 2, 0, 2, 0.00,60.00,Monday
31,9469604.825749658
831,9469604.825749658
1043,0.0
2,2, 1, 2, 0, 3, 0.00,60.00,Monday
31,9469604.825749658
831,9469604.825749658
1043,0.0
2,2, 1, 2, 0, 4, 0.00,60.00,Monday
31,9469604.825749658
831,9469604.825749658
1043,0.0
2,2, 1, 2, 0, 5, 0.00,60.00,Monday
31,9469604.825749658
831,9469604.825749658
1043,0.0
2,2, 1, 2, 0, 6, 0.00,60.00,Monday
31,9469604.825749658
831,9469604.825749658
1043,0.0
2,2, 1, 2, 0, 7, 0.00,60.00,Monday
31,37349861.31379828
831,37349861.31379828
1043,16900955.221211766
2,2, 1, 2, 0, 8, 0.00,60.00,Monday
31,40204553.892825838
831,40204553.892825838
1043,13558209.234043502
2,2, 1, 2, 0, 9, 0.00,60.00,Monday
31,43639951.93901019
831,43639951.93901019
1043,0.0
2,2, 1, 2, 0,10, 0.00,60.00,Monday
31,39578593.92570762
831,39578593.925707619
1043,0.0
2,2, 1, 2, 0,11, 0.00,60.00,Monday
31,36604181.92475603
831,36604181.92475602
1043,0.0
2,2, 1, 2, 0,12, 0.00,60.00,Monday
31,33561228.79227393
831,33561228.79227393
1043,0.0
2,2, 1, 2, 0,13, 0.00,60.00,Monday
31,34213296.18266272
831,34213296.18266271
1043,0.0
2,2, 1, 2, 0,14, 0.00,60.00,Monday
31,33710265.8710466
831,33710265.871046598
1043,0.0
2,2, 1, 2, 0,15, 0.00,60.00,Monday
31,34737296.97298938
831,34737296.97298937
1043,0.0
2,2, 1, 2, 0,16, 0.00,60.00,Monday
31,35274870.80397801
831,35274870.803978
1043,0.0
2,2, 1, 2, 0,17, 0.00,60.00,Monday
31,37132333.609614
831,37132333.609614
1043,0.0
2,2, 1, 2, 0,18, 0.00,60.00,Monday
31,37835552.14736508
831,37835552.14736506
1043,1958532.0020638507
2,2, 1, 2, 0,19, 0.00,60.00,Monday
31,32817989.698327874
831,32817989.698327874
1043,57533.829214641824
2,2, 1, 2, 0,20, 0.00,60.00,Monday
31,11853154.258345897
831,11853154.258345895
1043,0.0
2,2, 1, 2, 0,21, 0.00,60.00,Monday
31,10637784.395628443
831,10637784.395628443
1043,0.0
2,2, 1, 2, 0,22, 0.00,60.00,Monday
31,10637784.395628443
831,10637784.395628443
1043,0.0
2,2, 1, 2, 0,23, 0.00,60.00,Monday
31,9543951.519120457
831,9543951.519120455
1043,0.0
2,2, 1, 2, 0,24, 0.00,60.00,Monday
31,7197449.08321209
831,7197449.08321209
1043,0.0
2,3, 1, 3, 0, 1, 0.00,60.00,Tuesday
31,9469604.825749658
831,9469604.825749658
1043,0.0
2,3, 1, 3, 0, 2, 0.00,60.00,Tuesday
31,9469604.825749658
831,9469604.825749658
1043,0.0
2,3, 1, 3, 0, 3, 0.00,60.00,Tuesday
31,9469604.825749658
831,9469604.825749658
1043,0.0
2,3, 1, 3, 0, 4, 0.00,60.00,Tuesday
31,9469604.825749658
831,9469604.825749658
1043,0.0
2,3, 1, 3, 0, 5, 0.00,60.00,Tuesday
31,9469604.825749658
831,9469604.825749658
1043,0.0
2,3, 1, 3, 0, 6, 0.00,60.00,Tuesday
31,9469604.825749658
831,9469604.825749658
1043,0.0
2,3, 1, 3, 0, 7, 0.00,60.00,Tuesday
31,33229294.2874937
831,33229294.2874937
1043,9042305.540807287
2,3, 1, 3, 0, 8, 0.00,60.00,Tuesday
31,39180510.55427055
831,39180510.55427055
1043,12282173.927370256
2,3, 1, 3, 0, 9, 0.00,60.00,Tuesday
31,42577704.451141837
831,42577704.45114183
1043,0.0
2,3, 1, 3, 0,10, 0.00,60.00,Tuesday
31,39933879.55789163
831,39933879.55789162
1043,0.0
2,3, 1, 3, 0,11, 0.00,60.00,Tuesday
31,37663095.50664873
831,37663095.50664873
1043,0.0
2,3, 1, 3, 0,12, 0.00,60.00,Tuesday
31,36142974.95245009
831,36142974.95245008
1043,0.0
2,3, 1, 3, 0,13, 0.00,60.00,Tuesday
31,38393619.7611649
831,38393619.76116489
1043,1525554.4619797462
2,3, 1, 3, 0,14, 0.00,60.00,Tuesday
31,34311586.51259535
831,34311586.51259534
1043,0.0
2,3, 1, 3, 0,15, 0.00,60.00,Tuesday
31,34289819.47147821
831,34289819.47147821
1043,0.0
2,3, 1, 3, 0,16, 0.00,60.00,Tuesday
31,34962363.928679499
831,34962363.92867948
1043,0.0
2,3, 1, 3, 0,17, 0.00,60.00,Tuesday
31,37531384.67766908
831,37531384.67766906
1043,0.0
2,3, 1, 3, 0,18, 0.00,60.00,Tuesday
31,37083158.48032187
831,37083158.48032187
1043,4175378.2514038586
2,3, 1, 3, 0,19, 0.00,60.00,Tuesday
31,32712316.975871009
831,32712316.975871009
1043,0.0
2,3, 1, 3, 0,20, 0.00,60.00,Tuesday
31,11853154.258345897
831,11853154.258345895
1043,0.0
2,3, 1, 3, 0,21, 0.00,60.00,Tuesday
31,10637784.395628443
831,10637784.395628443
1043,0.0
2,3, 1, 3, 0,22, 0.00,60.00,Tuesday
31,10637784.395628443
831,10637784.395628443
1043,0.0
2,3, 1, 3, 0,23, 0.00,60.00,Tuesday
31,9543951.519120457
831,9543951.519120455
1043,0.0
2,3, 1, 3, 0,24, 0.00,60.00,Tuesday
31,7197449.08321209
831,7197449.08321209
1043,0.0
2,4, 1, 4, 0, 1, 0.00,60.00,Wednesday
31,9469604.825749658
831,9469604.825749658
1043,0.0
2,4, 1, 4, 0, 2, 0.00,60.00,Wednesday
31,9469604.825749658
831,9469604.825749658
1043,0.0
2,4, 1, 4, 0, 3, 0.00,60.00,Wednesday
31,9469604.825749658
831,9469604.825749658
1043,0.0
2,4, 1, 4, 0, 4, 0.00,60.00,Wednesday
31,9469604.825749658
831,9469604.825749658
1043,0.0
2,4, 1, 4, 0, 5, 0.00,60.00,Wednesday
31,9469604.825749658
831,9469604.825749658
1043,0.0
2,4, 1, 4, 0, 6, 0.00,60.00,Wednesday
31,9469604.825749658
831,9469604.825749658
1043,0.0
2,4, 1, 4, 0, 7, 0.00,60.00,Wednesday
31,33962207.250908818
831,33962207.25090882
1043,10645103.903333169
2,4, 1, 4, 0, 8, 0.00,60.00,Wednesday
31,40239302.11600461
831,40239302.11600461
1043,12866157.78870896
2,4, 1, 4, 0, 9, 0.00,60.00,Wednesday
31,42508168.46078215
831,42508168.46078214
1043,0.0
2,4, 1, 4, 0,10, 0.00,60.00,Wednesday
31,39007708.03889452
831,39007708.03889452
1043,0.0
2,4, 1, 4, 0,11, 0.00,60.00,Wednesday
31,36724822.45047254
831,36724822.45047253
1043,0.0
2,4, 1, 4, 0,12, 0.00,60.00,Wednesday
31,35291241.69002594
831,35291241.69002593
1043,0.0
2,4, 1, 4, 0,13, 0.00,60.00,Wednesday
31,37644665.37559469
831,37644665.37559468
1043,0.0
2,4, 1, 4, 0,14, 0.00,60.00,Wednesday
31,33455088.925597487
831,33455088.925597487
1043,0.0
2,4, 1, 4, 0,15, 0.00,60.00,Wednesday
31,33793986.91628162
831,33793986.91628162
1043,0.0
2,4, 1, 4, 0,16, 0.00,60.00,Wednesday
31,34954302.74967611
831,34954302.7496761
1043,0.0
2,4, 1, 4, 0,17, 0.00,60.00,Wednesday
31,37863444.24972897
831,37863444.24972896
1043,0.0
2,4, 1, 4, 0,18, 0.00,60.00,Wednesday
31,38012173.93217977
831,38012173.93217978
1043,5590888.252486123
2,4, 1, 4, 0,19, 0.00,60.00,Wednesday
31,34889837.91524121
831,34889837.915241207
1043,364953.69793148516
2,4, 1, 4, 0,20, 0.00,60.00,Wednesday
31,11853154.258345897
831,11853154.258345895
1043,0.0
2,4, 1, 4, 0,21, 0.00,60.00,Wednesday
31,10637784.395628443
831,10637784.395628443
1043,0.0
2,4, 1, 4, 0,22, 0.00,60.00,Wednesday
31,10637784.395628443
831,10637784.395628443
1043,0.0
2,4, 1, 4, 0,23, 0.00,60.00,Wednesday
31,9543951.519120457
831,9543951.519120455
1043,0.0
2,4, 1, 4, 0,24, 0.00,60.00,Wednesday
31,7197449.08321209
831,7197449.08321209
1043,0.0
2,5, 1, 5, 0, 1, 0.00,60.00,Thursday
31,9469604.825749658
831,9469604.825749658
1043,0.0
2,5, 1, 5, 0, 2, 0.00,60.00,Thursday
31,9469604.825749658
831,9469604.825749658
1043,0.0
2,5, 1, 5, 0, 3, 0.00,60.00,Thursday
31,9469604.825749658
831,9469604.825749658
1043,0.0
2,5, 1, 5, 0, 4, 0.00,60.00,Thursday
31,9469604.825749658
831,9469604.825749658
1043,0.0
2,5, 1, 5, 0, 5, 0.00,60.00,Thursday
31,9469604.825749658
831,9469604.825749658
1043,0.0
2,5, 1, 5, 0, 6, 0.00,60.00,Thursday
31,9469604.825749658
831,9469604.825749658
1043,0.0
2,5, 1, 5, 0, 7, 0.00,60.00,Thursday
31,18774636.720402909
831,18774636.720402909
1043,72205546.17191619
2,5, 1, 5, 0, 8, 0.00,60.00,Thursday
31,19882847.52182641
831,19882847.52182641
1043,84229758.96899969
2,5, 1, 5, 0, 9, 0.00,60.00,Thursday
31,29922178.563156059
831,29922178.563156055
1043,51380119.10287954
2,5, 1, 5, 0,10, 0.00,60.00,Thursday
31,34176710.60144676
831,34176710.60144676
1043,26263279.19323636
2,5, 1, 5, 0,11, 0.00,60.00,Thursday
31,40196028.81821047
831,40196028.818210478
1043,1188894.916892144
2,5, 1, 5, 0,12, 0.00,60.00,Thursday
31,37811273.47866698
831,37811273.478666979
1043,0.0
2,5, 1, 5, 0,13, 0.00,60.00,Thursday
31,39137394.616254549
831,39137394.616254549
1043,132793.32659335008
2,5, 1, 5, 0,14, 0.00,60.00,Thursday
31,34661216.18624369
831,34661216.18624368
1043,0.0
2,5, 1, 5, 0,15, 0.00,60.00,Thursday
31,33031325.03794184
831,33031325.037941837
1043,0.0
2,5, 1, 5, 0,16, 0.00,60.00,Thursday
31,32985417.273628069
831,32985417.273628065
1043,0.0
2,5, 1, 5, 0,17, 0.00,60.00,Thursday
31,36887774.1875258
831,36887774.187525797
1043,32630.565748437675
2,5, 1, 5, 0,18, 0.00,60.00,Thursday
31,37448265.66867705
831,37448265.66867705
1043,4302869.0653163329
2,5, 1, 5, 0,19, 0.00,60.00,Thursday
31,33533468.432550719
831,33533468.43255071
1043,479271.6387882407
2,5, 1, 5, 0,20, 0.00,60.00,Thursday
31,11853154.258345897
831,11853154.258345895
1043,0.0
2,5, 1, 5, 0,21, 0.00,60.00,Thursday
31,10637784.395628443
831,10637784.395628443
1043,0.0
2,5, 1, 5, 0,22, 0.00,60.00,Thursday
31,10637784.395628443
831,10637784.395628443
1043,0.0
2,5, 1, 5, 0,23, 0.00,60.00,Thursday
31,9543951.519120457
831,9543951.519120455
1043,0.0
2,5, 1, 5, 0,24, 0.00,60.00,Thursday
31,7197449.08321209
831,7197449.08321209
1043,0.0
2,6, 1, 6, 0, 1, 0.00,60.00,Friday
31,9469604.825749658
831,9469604.825749658
1043,0.0
2,6, 1, 6, 0, 2, 0.00,60.00,Friday
31,9469604.825749658
831,9469604.825749658
1043,0.0
2,6, 1, 6, 0, 3, 0.00,60.00,Friday
31,9469604.825749658
831,9469604.825749658
1043,0.0
2,6, 1, 6, 0, 4, 0.00,60.00,Friday
31,9469604.825749658
831,9469604.825749658
1043,0.0
2,6, 1, 6, 0, 5, 0.00,60.00,Friday
31,9469604.825749658
831,9469604.825749658
1043,0.0
2,6, 1, 6, 0, 6, 0.00,60.00,Friday
31,9469604.825749658
831,9469604.825749658
1043,0.0
2,6, 1, 6, 0, 7, 0.00,60.00,Friday
31,18774636.720402909
831,18774636.720402909
1043,73680954.95182126
2,6, 1, 6, 0, 8, 0.00,60.00,Friday
31,19882847.52182641
831,19882847.52182641
1043,86405103.1298701
2,6, 1, 6, 0, 9, 0.00,60.00,Friday
31,29902984.40243038
831,29902984.402430379
1043,52657846.22293208
2,6, 1, 6, 0,10, 0.00,60.00,Friday
31,29719958.943013263
831,29719958.94301326
1043,38195475.903028707
2,6, 1, 6, 0,11, 0.00,60.00,Friday
31,29596647.587606394
831,29596647.58760639
1043,30782387.724076339
2,6, 1, 6, 0,12, 0.00,60.00,Friday
31,41969906.80931203
831,41969906.80931202
1043,1474398.2983371663
2,6, 1, 6, 0,13, 0.00,60.00,Friday
31,42363832.307372849
831,42363832.307372849
1043,13070647.36264754
2,6, 1, 6, 0,14, 0.00,60.00,Friday
31,42364249.25499626
831,42364249.25499627
1043,425454.5161522847
2,6, 1, 6, 0,15, 0.00,60.00,Friday
31,41917398.42524445
831,41917398.42524444
1043,224017.64153997659
2,6, 1, 6, 0,16, 0.00,60.00,Friday
31,40237987.14610643
831,40237987.14610642
1043,5197765.410910532
2,6, 1, 6, 0,17, 0.00,60.00,Friday
31,32534701.488631965
831,32534701.488631958
1043,32531350.044600514
2,6, 1, 6, 0,18, 0.00,60.00,Friday
31,23792909.34995061
831,23792909.349950606
1043,63858529.695435028
2,6, 1, 6, 0,19, 0.00,60.00,Friday
31,17892375.358481978
831,17892375.358481978
1043,65431586.941523078
2,6, 1, 6, 0,20, 0.00,60.00,Friday
31,11853154.258345897
831,11853154.258345895
1043,0.0
2,6, 1, 6, 0,21, 0.00,60.00,Friday
31,10637784.395628443
831,10637784.395628443
1043,0.0
2,6, 1, 6, 0,22, 0.00,60.00,Friday
31,10637784.395628443
831,10637784.395628443
1043,0.0
2,6, 1, 6, 0,23, 0.00,60.00,Friday
31,9543951.519120457
831,9543951.519120455
1043,0.0
2,6, 1, 6, 0,24, 0.00,60.00,Friday
31,7197449.08321209
831,7197449.08321209
1043,0.0
2,7, 1, 7, 0, 1, 0.00,60.00,Saturday
31,6404338.596677196
831,6404338.596677196
1043,0.0
2,7, 1, 7, 0, 2, 0.00,60.00,Saturday
31,6404338.596677196
831,6404338.596677196
1043,0.0
2,7, 1, 7, 0, 3, 0.00,60.00,Saturday
31,6404338.596677196
831,6404338.596677196
1043,0.0
2,7, 1, 7, 0, 4, 0.00,60.00,Saturday
31,6822358.56198184
831,6822358.56198184
1043,642340.407774905
2,7, 1, 7, 0, 5, 0.00,60.00,Saturday
31,8344203.86051098
831,8344203.860510979
1043,3594290.711058326
2,7, 1, 7, 0, 6, 0.00,60.00,Saturday
31,8500513.512593709
831,8500513.512593709
1043,5764808.009209255
2,7, 1, 7, 0, 7, 0.00,60.00,Saturday
31,10139283.318878768
831,10139283.318878768
1043,5426731.340783576
2,7, 1, 7, 0, 8, 0.00,60.00,Saturday
31,7061229.969306529
831,7061229.969306529
1043,1755623.0034790599
2,7, 1, 7, 0, 9, 0.00,60.00,Saturday
31,6120725.275726819
831,6120725.275726819
1043,848861.4520860897
2,7, 1, 7, 0,10, 0.00,60.00,Saturday
31,5395258.596677196
831,5395258.596677196
1043,0.0
2,7, 1, 7, 0,11, 0.00,60.00,Saturday
31,5395258.596677196
831,5395258.596677196
1043,0.0
2,7, 1, 7, 0,12, 0.00,60.00,Saturday
31,5395258.596677196
831,5395258.596677196
1043,0.0
2,7, 1, 7, 0,13, 0.00,60.00,Saturday
31,5395258.596677196
831,5395258.596677196
1043,0.0
2,7, 1, 7, 0,14, 0.00,60.00,Saturday
31,5395258.596677196
831,5395258.596677196
1043,0.0
2,7, 1, 7, 0,15, 0.00,60.00,Saturday
31,5395258.596677196
831,5395258.596677196
1043,0.0
2,7, 1, 7, 0,16, 0.00,60.00,Saturday
31,5395258.596677196
831,5395258.596677196
1043,0.0
2,7, 1, 7, 0,17, 0.00,60.00,Saturday
31,6495598.596677196
831,6495598.596677196
1043,0.0
2,7, 1, 7, 0,18, 0.00,60.00,Saturday
31,7595938.596677196
831,7595938.596677195
1043,0.0
2,7, 1, 7, 0,19, 0.00,60.00,Saturday
31,8005633.166470423
831,8005633.166470422
1043,1920479.0601264756
2,7, 1, 7, 0,20, 0.00,60.00,Saturday
31,7422373.073106376
831,7422373.073106376
1043,1226944.513952956
2,7, 1, 7, 0,21, 0.00,60.00,Saturday
31,7528947.722546235
831,7528947.722546235
1043,1862595.8304052877
2,7, 1, 7, 0,22, 0.00,60.00,Saturday
31,8212083.574892163
831,8212083.574892162
1043,3250618.2932738207
2,7, 1, 7, 0,23, 0.00,60.00,Saturday
31,8618908.836328518
831,8618908.836328518
1043,4040842.802373156
2,7, 1, 7, 0,24, 0.00,60.00,Saturday
31,8489029.730587854
831,8489029.730587854
1043,4382473.194368124
2,8, 1, 8, 0, 1, 0.00,60.00,Sunday
31,8363884.090709706
831,8363884.090709706
1043,5040250.643474068
2,8, 1, 8, 0, 2, 0.00,60.00,Sunday
31,8272576.367628102
831,8272576.367628102
1043,5580031.908092137
2,8, 1, 8, 0, 3, 0.00,60.00,Sunday
31,8746837.703407107
831,8746837.703407107
1043,6833557.770501397
2,8, 1, 8, 0, 4, 0.00,60.00,Sunday
31,8847006.786674206
831,8847006.786674206
1043,8066164.918815624
2,8, 1, 8, 0, 5, 0.00,60.00,Sunday
31,9034052.91293016
831,9034052.91293016
1043,8434298.502257904
2,8, 1, 8, 0, 6, 0.00,60.00,Sunday
31,8751268.383499857
831,8751268.383499856
1043,9113147.5655485
2,8, 1, 8, 0, 7, 0.00,60.00,Sunday
31,10417129.71927886
831,10417129.71927886
1043,9185312.44063557
2,8, 1, 8, 0, 8, 0.00,60.00,Sunday
31,8472876.490580356
831,8472876.490580354
1043,7437156.882458688
2,8, 1, 8, 0, 9, 0.00,60.00,Sunday
31,6676602.4928750679
831,6676602.492875065
1043,3962658.395042922
2,8, 1, 8, 0,10, 0.00,60.00,Sunday
31,6722504.410335051
831,6722504.41033505
1043,3510939.380600932
2,8, 1, 8, 0,11, 0.00,60.00,Sunday
31,6628065.16037487
831,6628065.160374869
1043,2469813.4991677266
2,8, 1, 8, 0,12, 0.00,60.00,Sunday
31,5942819.496286045
831,5942819.496286044
1043,900083.8910639344
2,8, 1, 8, 0,13, 0.00,60.00,Sunday
31,5885297.948698361
831,5885297.9486983609
1043,0.0
2,8, 1, 8, 0,14, 0.00,60.00,Sunday
31,5942154.510028679
831,5942154.510028678
1043,0.0
2,8, 1, 8, 0,15, 0.00,60.00,Sunday
31,5965283.5735800969
831,5965283.573580096
1043,0.0
2,8, 1, 8, 0,16, 0.00,60.00,Sunday
31,5395258.596677196
831,5395258.596677196
1043,0.0
2,8, 1, 8, 0,17, 0.00,60.00,Sunday
31,6495598.596677196
831,6495598.596677196
1043,0.0
2,8, 1, 8, 0,18, 0.00,60.00,Sunday
31,8127628.0977381779
831,8127628.097738177
1043,0.0
2,8, 1, 8, 0,19, 0.00,60.00,Sunday
31,8145651.767700851
831,8145651.76770085
1043,0.0
2,8, 1, 8, 0,20, 0.00,60.00,Sunday
31,7312835.792701618
831,7312835.792701618
1043,0.0
2,8, 1, 8, 0,21, 0.00,60.00,Sunday
31,7672985.668083953
831,7672985.668083954
1043,0.0
2,8, 1, 8, 0,22, 0.00,60.00,Sunday
31,7972387.147264899
831,7972387.147264899
1043,0.0
2,8, 1, 8, 0,23, 0.00,60.00,Sunday
31,9718291.279929167
831,9718291.279929165
1043,29227.4600849189
2,8, 1, 8, 0,24, 0.00,60.00,Sunday
31,9338161.630869564
831,9338161.630869564
1043,82622.03201463478
2,9, 1, 9, 0, 1, 0.00,60.00,Monday
31,10942069.651368658
831,10942069.651368658
1043,0.0
2,9, 1, 9, 0, 2, 0.00,60.00,Monday
31,11589142.860275098
831,11589142.860275098
1043,0.0
2,9, 1, 9, 0, 3, 0.00,60.00,Monday
31,10947864.782252774
831,10947864.782252774
1043,0.0
2,9, 1, 9, 0, 4, 0.00,60.00,Monday
31,10728939.58690062
831,10728939.58690062
1043,0.0
2,9, 1, 9, 0, 5, 0.00,60.00,Monday
31,11374368.122840768
831,11374368.122840768
1043,0.0
2,9, 1, 9, 0, 6, 0.00,60.00,Monday
31,11477914.775218718
831,11477914.775218714
1043,0.0
2,9, 1, 9, 0, 7, 0.00,60.00,Monday
31,37030785.53101104
831,37030785.53101104
1043,51197733.09887913
2,9, 1, 9, 0, 8, 0.00,60.00,Monday
31,39185030.655484329
831,39185030.655484329
1043,47566831.432694
2,9, 1, 9, 0, 9, 0.00,60.00,Monday
31,46769165.47994628
831,46769165.47994627
1043,6082518.391791532
2,9, 1, 9, 0,10, 0.00,60.00,Monday
31,42416586.994735348
831,42416586.99473534
1043,333991.2457159953
2,9, 1, 9, 0,11, 0.00,60.00,Monday
31,38616144.50362178
831,38616144.50362177
1043,0.0
2,9, 1, 9, 0,12, 0.00,60.00,Monday
31,35434800.02487677
831,35434800.02487676
1043,0.0
2,9, 1, 9, 0,13, 0.00,60.00,Monday
31,35272835.03423931
831,35272835.03423931
1043,0.0
2,9, 1, 9, 0,14, 0.00,60.00,Monday
31,31938656.24435773
831,31938656.244357725
1043,0.0
2,9, 1, 9, 0,15, 0.00,60.00,Monday
31,31111790.840543368
831,31111790.84054336
1043,0.0
2,9, 1, 9, 0,16, 0.00,60.00,Monday
31,31308288.081769915
831,31308288.081769907
1043,0.0
2,9, 1, 9, 0,17, 0.00,60.00,Monday
31,34455671.56162234
831,34455671.56162234
1043,0.0
2,9, 1, 9, 0,18, 0.00,60.00,Monday
31,34184472.3390573
831,34184472.33905728
1043,0.0
2,9, 1, 9, 0,19, 0.00,60.00,Monday
31,29027074.23861397
831,29027074.238613964
1043,0.0
2,9, 1, 9, 0,20, 0.00,60.00,Monday
31,11853154.258345897
831,11853154.258345895
1043,0.0
2,9, 1, 9, 0,21, 0.00,60.00,Monday
31,10637784.395628443
831,10637784.395628443
1043,0.0
2,9, 1, 9, 0,22, 0.00,60.00,Monday
31,10637784.395628443
831,10637784.395628443
1043,0.0
2,9, 1, 9, 0,23, 0.00,60.00,Monday
31,9543951.519120457
831,9543951.519120455
1043,0.0
2,9, 1, 9, 0,24, 0.00,60.00,Monday
31,7197449.08321209
831,7197449.08321209
1043,0.0
2,10, 1,10, 0, 1, 0.00,60.00,Tuesday
31,9469604.825749658
831,9469604.825749658
1043,0.0
2,10, 1,10, 0, 2, 0.00,60.00,Tuesday
31,9469604.825749658
831,9469604.825749658
1043,0.0
2,10, 1,10, 0, 3, 0.00,60.00,Tuesday
31,9469604.825749658
831,9469604.825749658
1043,0.0
2,10, 1,10, 0, 4, 0.00,60.00,Tuesday
31,9469604.825749658
831,9469604.825749658
1043,0.0
2,10, 1,10, 0, 5, 0.00,60.00,Tuesday
31,9469604.825749658
831,9469604.825749658
1043,0.0
2,10, 1,10, 0, 6, 0.00,60.00,Tuesday
31,9469604.825749658
831,9469604.825749658
1043,0.0
2,10, 1,10, 0, 7, 0.00,60.00,Tuesday
31,32951771.09766026
831,32951771.097660263
1043,8866913.989391985
2,10, 1,10, 0, 8, 0.00,60.00,Tuesday
31,38891327.67028281
831,38891327.6702828
1043,11278297.763642237
2,10, 1,10, 0, 9, 0.00,60.00,Tuesday
31,38123734.7733268
831,38123734.773326788
1043,0.0
2,10, 1,10, 0,10, 0.00,60.00,Tuesday
31,33262636.40491667
831,33262636.40491666
1043,0.0
2,10, 1,10, 0,11, 0.00,60.00,Tuesday
31,31657271.362106369
831,31657271.362106366
1043,0.0
2,10, 1,10, 0,12, 0.00,60.00,Tuesday
31,30791728.929083
831,30791728.929082999
1043,0.0
2,10, 1,10, 0,13, 0.00,60.00,Tuesday
31,28913101.11147652
831,28913101.11147651
1043,0.0
2,10, 1,10, 0,14, 0.00,60.00,Tuesday
31,30199644.66003193
831,30199644.66003193
1043,0.0
2,10, 1,10, 0,15, 0.00,60.00,Tuesday
31,30150792.57039258
831,30150792.570392576
1043,0.0
2,10, 1,10, 0,16, 0.00,60.00,Tuesday
31,30529258.600427446
831,30529258.600427439
1043,0.0
2,10, 1,10, 0,17, 0.00,60.00,Tuesday
31,32904098.971112588
831,32904098.97111258
1043,0.0
2,10, 1,10, 0,18, 0.00,60.00,Tuesday
31,32778177.01642807
831,32778177.01642806
1043,0.0
2,10, 1,10, 0,19, 0.00,60.00,Tuesday
31,30364435.841236008
831,30364435.841236008
1043,0.0
2,10, 1,10, 0,20, 0.00,60.00,Tuesday
31,11853154.258345897
831,11853154.258345895
1043,0.0
2,10, 1,10, 0,21, 0.00,60.00,Tuesday
31,10637784.395628443
831,10637784.395628443
1043,0.0
2,10, 1,10, 0,22, 0.00,60.00,Tuesday
31,10637784.395628443
831,10637784.395628443
1043,0.0
2,10, 1,10, 0,23, 0.00,60.00,Tuesday
31,9543951.519120457
831,9543951.519120455
1043,0.0
2,10, 1,10, 0,24, 0.00,60.00,Tuesday
31,7197449.08321209
831,7197449.08321209
1043,0.0
2,11, 1,11, 0, 1, 0.00,60.00,Wednesday
31,9469604.825749658
831,9469604.825749658
1043,0.0
2,11, 1,11, 0, 2, 0.00,60.00,Wednesday
31,9469604.825749658
831,9469604.825749658
1043,0.0
2,11, 1,11, 0, 3, 0.00,60.00,Wednesday
31,9469604.825749658
831,9469604.825749658
1043,0.0
2,11, 1,11, 0, 4, 0.00,60.00,Wednesday
31,9469604.825749658
831,9469604.825749658
1043,0.0
2,11, 1,11, 0, 5, 0.00,60.00,Wednesday
31,9469604.825749658
831,9469604.825749658
1043,0.0
2,11, 1,11, 0, 6, 0.00,60.00,Wednesday
31,9469604.825749658
831,9469604.825749658
1043,0.0
2,11, 1,11, 0, 7, 0.00,60.00,Wednesday
31,33815678.44766996
831,33815678.44766996
1043,10286228.130692512
2,11, 1,11, 0, 8, 0.00,60.00,Wednesday
31,40134597.67393384
831,40134597.67393384
1043,14026185.419242515
2,11, 1,11, 0, 9, 0.00,60.00,Wednesday
31,43092233.93948603
831,43092233.93948603
1043,0.0
2,11, 1,11, 0,10, 0.00,60.00,Wednesday
31,38793706.902352068
831,38793706.902352068
1043,0.0
2,11, 1,11, 0,11, 0.00,60.00,Wednesday
31,35388477.09691701
831,35388477.096917
1043,0.0
2,11, 1,11, 0,12, 0.00,60.00,Wednesday
31,32615629.065464155
831,32615629.065464155
1043,0.0
2,11, 1,11, 0,13, 0.00,60.00,Wednesday
31,31954957.488553995
831,31954957.488553998
1043,0.0
2,11, 1,11, 0,14, 0.00,60.00,Wednesday
31,30054060.14212696
831,30054060.142126956
1043,0.0
2,11, 1,11, 0,15, 0.00,60.00,Wednesday
31,29794085.72180377
831,29794085.721803756
1043,0.0
2,11, 1,11, 0,16, 0.00,60.00,Wednesday
31,30219787.11073163
831,30219787.110731625
1043,0.0
2,11, 1,11, 0,17, 0.00,60.00,Wednesday
31,32317337.19927934
831,32317337.19927934
1043,0.0
2,11, 1,11, 0,18, 0.00,60.00,Wednesday
31,28316570.155398366
831,28316570.15539837
1043,0.0
2,11, 1,11, 0,19, 0.00,60.00,Wednesday
31,23777450.394261425
831,23777450.39426142
1043,0.0
2,11, 1,11, 0,20, 0.00,60.00,Wednesday
31,11853154.258345897
831,11853154.258345895
1043,0.0
2,11, 1,11, 0,21, 0.00,60.00,Wednesday
31,10637784.395628443
831,10637784.395628443
1043,0.0