Program Version,EnergyPlus, Version 8.6.0-198c6a3cff, YMD=2019.03.03 18:58
1,5,Environment Title[],Latitude[deg],Longitude[deg],Time Zone[],Elevation[m]
2,6,Day of Simulation[],Month[],Day of Month[],DST Indicator[1=yes 0=no],Hour[],StartMinute[],EndMinute[],DayType
3,3,Cumulative Day of Simulation[],Month[],Day of Month[],DST Indicator[1=yes 0=no],DayType  ! When Daily Report Variables Requested
4,2,Cumulative Days of Simulation[],Month[]  ! When Monthly Report Variables Requested
5,1,Cumulative Days of Simulation[] ! When Run Period Report Variables Requested
525,1,CORE_ZN,Zone Predicted Sensible Load to Setpoint Heat Transfer Rate [W] !Hourly
526,1,CORE_ZN,Zone Predicted Sensible Load to Heating Setpoint Heat Transfer Rate [W] !Hourly
527,1,CORE_ZN,Zone Predicted Sensible Load to Cooling Setpoint Heat Transfer Rate [W] !Hourly
562,1,PERIMETER_ZN_1,Zone Predicted Sensible Load to Setpoint Heat Transfer Rate [W] !Hourly
563,1,PERIMETER_ZN_1,Zone Predicted Sensible Load to Heating Setpoint Heat Transfer Rate [W] !Hourly
564,1,PERIMETER_ZN_1,Zone Predicted Sensible Load to Cooling Setpoint Heat Transfer Rate [W] !Hourly
599,1,PERIMETER_ZN_2,Zone Predicted Sensible Load to Setpoint Heat Transfer Rate [W] !Hourly
600,1,PERIMETER_ZN_2,Zone Predicted Sensible Load to Heating Setpoint Heat Transfer Rate [W] !Hourly
601,1,PERIMETER_ZN_2,Zone Predicted Sensible Load to Cooling Setpoint Heat Transfer Rate [W] !Hourly
636,1,PERIMETER_ZN_3,Zone Predicted Sensible Load to Setpoint Heat Transfer Rate [W] !Hourly
637,1,PERIMETER_ZN_3,Zone Predicted Sensible Load to Heating Setpoint Heat Transfer Rate [W] !Hourly
638,1,PERIMETER_ZN_3,Zone Predicted Sensible Load to Cooling Setpoint Heat Transfer Rate [W] !Hourly
673,1,PERIMETER_ZN_4,Zone Predicted Sensible Load to Setpoint Heat Transfer Rate [W] !Hourly
674,1,PERIMETER_ZN_4,Zone Predicted Sensible Load to Heating Setpoint Heat Transfer Rate [W] !Hourly
675,1,PERIMETER_ZN_4,Zone Predicted Sensible Load to Cooling Setpoint Heat Transfer Rate [W] !Hourly
710,1,ATTIC,Zone Predicted Sensible Load to Setpoint Heat Transfer Rate [W] !Hourly
711,1,ATTIC,Zone Predicted Sensible Load to Heating Setpoint Heat Transfer Rate [W] !Hourly
712,1,ATTIC,Zone Predicted Sensible Load to Cooling Setpoint Heat Transfer Rate [W] !Hourly
End of Data Dictionary
1,BUFFALO.NIAGARA.INTL.AP_NY_USA ANN HTG 99.6% CONDNS DB,  41.98, -87.92,  -6.00, 201.00
2,1, 1,21, 0, 1, 0.00,60.00,WinterDesignDay
525,1939.5571032860842
526,1939.5571032860842
527,52992.91549053529
562,5770.009775037605
563,5770.009775037605
564,46984.75313209256
599,3534.909241964913
600,3534.909241964913
601,28229.3900341566
636,5648.3526263309495
637,5648.3526263309495
638,46866.63494483723
673,3566.525878308795
674,3566.525878308795
675,28270.53721394547
710,0.0
711,0.0
712,0.0
2,1, 1,21, 0, 2, 0.00,60.00,WinterDesignDay
525,1565.4450551334287
526,1565.4450551334287
527,57588.96552356994
562,7059.671032801812
563,7059.671032801812
564,51701.77327130781
599,4308.67601338767
600,4308.67601338767
601,31038.4785565916
636,6919.359800758692
637,6919.359800758692
638,51571.150793933375
673,4343.616059575809
674,4343.616059575809
675,31083.72940288266
710,0.0
711,0.0
712,0.0
2,1, 1,21, 0, 3, 0.00,60.00,WinterDesignDay
525,2196.3267481514577
526,2196.3267481514577
527,57797.607945868214
562,5569.023145377291
563,5569.023145377291
564,49692.66819388745
599,3416.47983315747
600,3416.47983315747
601,29845.88677909153
636,5483.0424247592555
637,5483.0424247592555
638,49690.69956168853
673,3446.644505914612
674,3446.644505914612
675,29887.04299480368
710,0.0
711,0.0
712,0.0
2,1, 1,21, 0, 4, 0.00,60.00,WinterDesignDay
525,1565.1815027769342
526,1565.1815027769342
527,57599.97847508299
562,7083.723834996318
563,7083.723834996318
564,51735.84667939201
599,4324.34188656821
600,4324.34188656821
601,31061.193247515926
636,6945.506025551782
637,6945.506025551782
638,51613.37682154873
673,4359.224798542112
674,4359.224798542112
675,31106.366520087526
710,0.0
711,0.0
712,0.0
2,1, 1,21, 0, 5, 0.00,60.00,WinterDesignDay
525,2192.590444434841
526,2192.590444434841
527,57804.20530103168
562,5577.779928279054
563,5577.779928279054
564,49704.063636819796
599,3422.4468067619105
600,3422.4468067619105
601,29854.070755709556
636,5492.7989488377825
637,5492.7989488377825
638,49707.57522000471
673,3452.6137477281172
674,3452.6137477281172
675,29895.250326362046
710,0.0
711,0.0
712,0.0
2,1, 1,21, 0, 6, 0.00,60.00,WinterDesignDay
525,1561.1014277444444
526,1561.1014277444444
527,57602.15010598774
562,7090.03146211772
563,7090.03146211772
564,51744.684354968835
599,4328.580025874245
600,4328.580025874245
601,31067.24724149579
636,6951.92412699456
637,6951.92412699456
638,51623.20676239514
673,4363.45913757087
674,4363.45913757087
675,31112.41199084923
710,0.0
711,0.0
712,0.0
2,1, 1,21, 0, 7, 0.00,60.00,WinterDesignDay
525,2185.864268594011
526,2185.864268594011
527,57805.27754291599
562,5581.082067116798
563,5581.082067116798
564,49708.3820548481
599,3424.711192990288
600,3424.711192990288
601,29857.134335192426
636,5495.993094350307
637,5495.993094350307
638,49712.510138754296
673,3454.8824428305556
674,3454.8824428305556
675,29898.320336414865
710,0.0
711,0.0
712,0.0
2,1, 1,21, 0, 8, 0.00,60.00,WinterDesignDay
525,1439.3381597948328
526,1439.3381597948328
527,50632.42875146862
562,5374.543661571109
563,5374.543661571109
564,44601.27227787365
599,3238.4725903581275
600,3238.4725903581275
601,26752.040580744546
636,5254.042906361503
637,5254.042906361503
638,44499.30558528285
673,3270.1363257836238
674,3270.1363257836238
675,26794.60004060624
710,0.0
711,0.0
712,0.0
2,1, 1,21, 0, 9, 0.00,60.00,WinterDesignDay
525,1952.0705606639629
526,1952.0705606639629
527,50713.134711615974
562,4224.024650812772
563,4224.024650812772
564,42814.00253596331
599,2557.514927715275
600,2557.514927715275
601,25704.415397259076
636,4154.823929865014
637,4154.823929865014
638,42839.24971476166
673,2585.4403195761697
674,2585.4403195761697
675,25744.731468409347
710,0.0
711,0.0
712,0.0
2,1, 1,21, 0,10, 0.00,60.00,WinterDesignDay
525,1458.1387903610732
526,1458.1387903610732
527,50635.17038620214
562,5343.9101729416925
563,5343.9101729416925
564,44550.492559338774
599,3215.4592448580484
600,3215.4592448580484
601,26715.22602732349
636,5220.572197816166
637,5220.572197816166
638,44445.40577986158
673,3246.9513698736414
674,3246.9513698736414
675,26757.745231471392
710,0.0
711,0.0
712,0.0
2,1, 1,21, 0,11, 0.00,60.00,WinterDesignDay
525,1967.7533183901542
526,1967.7533183901542
527,50712.39430332793
562,4211.738698720873
563,4211.738698720873
564,42794.84304609807
599,2548.205094814306
600,2548.205094814306
601,25689.95701470088
636,4141.037590665849
637,4141.037590665849
638,42817.89454116893
673,2576.113782514005
674,2576.113782514005
675,25730.278291024253
710,0.0
711,0.0
712,0.0
2,1, 1,21, 0,12, 0.00,60.00,WinterDesignDay
525,1472.7220956663714
526,1472.7220956663714
527,50642.699616830134
562,5336.370399603095
563,5336.370399603095
564,44539.65308053288
599,3209.5917227383493
600,3209.5917227383493
601,26706.51807421607
636,5211.798564926986
637,5211.798564926986
638,44432.343138729986
673,3241.076316851722
674,3241.076316851722
675,26749.033828695905
710,0.0
711,0.0
712,0.0
2,1, 1,21, 0,13, 0.00,60.00,WinterDesignDay
525,2000.6964650012512
526,2000.6964650012512
527,50726.727973791036
562,4208.071382021618
563,4208.071382021618
564,42790.74022100677
599,2545.1216972513726
600,2545.1216972513726
601,25685.87809394718
636,4136.366365192811
637,4136.366365192811
638,42811.60106573102
673,2573.0158100521703
674,2573.0158100521703
675,25726.168722142855
710,0.0
711,0.0
712,0.0
2,1, 1,21, 0,14, 0.00,60.00,WinterDesignDay
525,1488.29998887041
526,1488.29998887041
527,50653.98841361975
562,5332.88480732546
563,5332.88480732546
564,44535.128569568325
599,3206.7790625519833
600,3206.7790625519833
601,26702.56280048276
636,5207.542573796005
637,5207.542573796005
638,44426.28035641459
673,3238.2575123647384
674,3238.2575123647384
675,26745.0680216684
710,0.0
711,0.0
712,0.0
2,1, 1,21, 0,15, 0.00,60.00,WinterDesignDay
525,1987.9511195973075
526,1987.9511195973075
527,50717.29250292422
562,4206.07115184192
563,4206.07115184192
564,42789.003930380335
599,2543.353206064567
600,2543.353206064567
601,25683.74315498222
636,4133.649644480867
637,4133.649644480867
638,42808.19226676033
673,2571.237105063334
674,2571.237105063334
675,25724.00832091825
710,0.0
711,0.0
712,0.0
2,1, 1,21, 0,16, 0.00,60.00,WinterDesignDay
525,1470.8415642273067
526,1470.8415642273067
527,50642.42398480781
562,5330.4311023428245
563,5330.4311023428245
564,44532.02621432044
599,3204.8364536473855
600,3204.8364536473855
601,26699.87704767217
636,5204.549206091385
637,5204.549206091385
638,44422.07862813018
673,3236.3107106940765
674,3236.3107106940765
675,26742.374321027706
710,0.0
711,0.0
712,0.0
2,1, 1,21, 0,17, 0.00,60.00,WinterDesignDay
525,1992.702791234178
526,1992.702791234178
527,50723.30336572891
562,4204.500875557317
563,4204.500875557317
564,42787.610751158725
599,2542.0315753255113
600,2542.0315753255113
601,25682.166812386233
636,4131.569325896
637,4131.569325896
638,42805.606529636
673,2569.908144827269
674,2569.908144827269
675,25722.413441845692
710,0.0
711,0.0
712,0.0
2,1, 1,21, 0,18, 0.00,60.00,WinterDesignDay
525,1464.3928075343722
526,1464.3928075343722
527,50638.878119338595
562,5328.590058031084
563,5328.590058031084
564,44529.68574447243
599,3203.3967607703125
600,3203.3967607703125
601,26697.883246801444
636,5202.316230656553
637,5202.316230656553
638,44418.932334282785
673,3234.86826023171
674,3234.86826023171
675,26740.375074249907
710,0.0
711,0.0
712,0.0
2,1, 1,21, 0,19, 0.00,60.00,WinterDesignDay
525,2103.59463221209
526,2103.59463221209
527,55405.65685797443
562,5402.4394016945525
563,5402.4394016945525
564,47676.06034567038
599,3308.96132373755
600,3308.96132373755
601,28642.05298515319
636,5313.711002878974
637,5313.711002878974
638,47665.80065659069
673,3338.6095903514292
674,3338.6095903514292
675,28683.35996596295
710,0.0
711,0.0
712,0.0
2,1, 1,21, 0,20, 0.00,60.00,WinterDesignDay
525,1588.268889853094
526,1588.268889853094
527,57618.370171708775
562,7059.52937256771
563,7059.52937256771
564,51701.777261024574
599,4305.141578677598
600,4305.141578677598
601,31033.619952380628
636,6915.888516242085
637,6915.888516242085
638,51567.659425295766
673,4340.012355177611
674,4340.012355177611
675,31078.78314118306
710,0.0
711,0.0
712,0.0
2,1, 1,21, 0,21, 0.00,60.00,WinterDesignDay
525,2233.234375240564
526,2233.234375240564
527,57829.81846910089
562,5566.431465157172
563,5566.431465157172
564,49689.26946599638
599,3413.0782264626255
600,3413.0782264626255
601,29841.37014352546
636,5478.6317817349745
637,5478.6317817349745
638,49685.5553711475
673,3443.2228379341373
674,3443.2228379341373
675,29882.509591761587
710,0.0
711,0.0
712,0.0
2,1, 1,21, 0,22, 0.00,60.00,WinterDesignDay
525,1584.1988487010865
526,1584.1988487010865
527,57624.34209374108
562,7079.861270647108
563,7079.861270647108
564,51730.523955744255
599,4320.225713541448
600,4320.225713541448
601,31055.421152050025
636,6939.722175596479
637,6939.722175596479
638,51605.240160653215
673,4355.101699790546
674,4355.101699790546
675,31100.593126204778
710,0.0
711,0.0
712,0.0
2,1, 1,21, 0,23, 0.00,60.00,WinterDesignDay
525,2211.8471501426798
526,2211.8471501426798
527,57823.599957381964
562,5574.897317782026
563,5574.897317782026
564,49700.32263579226
599,3419.516120251752
600,3419.516120251752
601,29850.161223720454
636,5489.025981465366
637,5489.025981465366
638,49702.314116344605
673,3449.678985860553
674,3449.678985860553
675,29891.34065432313
710,0.0
711,0.0
712,0.0
2,1, 1,21, 0,24, 0.00,60.00,WinterDesignDay
525,1572.5597907877866
526,1572.5597907877866
527,57617.88611032193
562,7086.745804698883
563,7086.745804698883
564,51740.14538289047
599,4325.356349474811
600,4325.356349474811
601,31062.7181646606
636,6947.368832709074
637,6947.368832709074
638,51616.670616611525
673,4360.2360002648165
674,4360.2360002648165
675,31107.8898702885
710,0.0
711,0.0
712,0.0
1,BUFFALO.NIAGARA.INTL.AP_NY_USA ANN CLG .4% CONDNS DB=>MWB,  41.98, -87.92,  -6.00, 201.00
2,1, 7,21, 0, 1, 0.00,60.00,SummerDesignDay
525,-3972.835639287055
526,-45065.86266535178
527,-3972.835639287055
562,-2759.5403097194126
563,-34724.04984899383
564,-2759.5403097194126
599,-1602.4396882127176
600,-20771.734889928648
601,-1602.4396882127176
636,-2787.226177168839
637,-34691.88978381547
638,-2787.226177168839
673,-1710.6638005046586
674,-21018.74932103504
675,-1710.6638005046586
710,0.0
711,0.0
712,0.0
2,1, 7,21, 0, 2, 0.00,60.00,SummerDesignDay
525,-4217.67780894632
526,-43222.994799938315
527,-4217.67780894632
562,-2947.260597056686
563,-33128.099531773856
564,-2947.260597056686
599,-1758.6840634584667
600,-19857.816619157904
601,-1758.6840634584667
636,-2942.8600900743695
637,-33088.41792727847
638,-2942.8600900743695
673,-1864.1068685671016
674,-20083.521205957037
675,-1864.1068685671016
710,0.0
711,0.0
712,0.0
2,1, 7,21, 0, 3, 0.00,60.00,SummerDesignDay
525,-3459.2319417597355
526,-40145.91047079575
527,-3459.2319417597355
562,-2282.903338312394
563,-30661.214730247477
564,-2282.903338312394
599,-1342.0754966990014
600,-18361.385165634212
601,-1342.0754966990014
636,-2315.202954349127
637,-30670.202900420893
638,-2315.202954349127
673,-1408.7052532713308
674,-18495.054438353156
675,-1408.7052532713308
710,0.0
711,0.0
712,0.0
2,1, 7,21, 0, 4, 0.00,60.00,SummerDesignDay
525,-4178.12885714126
526,-43132.73769740183
527,-4178.12885714126
562,-2818.4286646293026
563,-32880.942366846975
564,-2818.4286646293026
599,-1678.2030749816968
600,-19695.644992407862
601,-1678.2030749816968
636,-2818.2545743843925
637,-32844.2390923359
638,-2818.2545743843925
673,-1753.6917295837136
674,-19867.387095728838
675,-1753.6917295837136
710,0.0
711,0.0
712,0.0
2,1, 7,21, 0, 5, 0.00,60.00,SummerDesignDay
525,-3427.817889424963
526,-40088.75773250333
527,-3427.817889424963
562,-2195.5080143518667
563,-30497.204677140453
564,-2195.5080143518667
599,-1314.6773931046662
600,-18293.134309134515
601,-1314.6773931046662
636,-2248.7094229012832
637,-30531.90317534086
638,-2248.7094229012832
673,-1340.5940386599639
674,-18361.266729801457
675,-1340.5940386599639
710,0.0
711,0.0
712,0.0
2,1, 7,21, 0, 6, 0.00,60.00,SummerDesignDay
525,-4607.851940437823
526,-52587.58071969656
527,-4607.851940437823
562,-3135.721437575005
563,-39997.42708274506
564,-3135.721437575005
599,-2487.168320785038
600,-24995.827086910886
601,-2487.168320785038
636,-3351.089178379086
637,-40443.06097608353
638,-3351.089178379086
673,-1920.8972830842347
674,-24038.197401657395
675,-1920.8972830842347
710,0.0
711,0.0
712,0.0
2,1, 7,21, 0, 7, 0.00,60.00,SummerDesignDay
525,-2852.373891329349
526,-64529.046874035324
527,-2852.373891329349
562,-1969.1977558667386
563,-49344.72289704966
564,-1969.1977558667386
599,-2130.591044732751
600,-31452.789585861232
601,-2130.591044732751
636,-2094.5338437283995
637,-49669.099416557634
638,-2094.5338437283995
673,-1170.8490266120268
674,-29502.59268688032
675,-1170.8490266120268
710,0.0
711,0.0
712,0.0
2,1, 7,21, 0, 8, 0.00,60.00,SummerDesignDay
525,-2491.7485623555435
526,-66447.67067345004
527,-2491.7485623555435
562,-1930.8005176442282
563,-51154.16640708436
564,-1930.8005176442282
599,-2505.6936058581546
600,-33437.72793715197
601,-2505.6936058581546
636,-1961.5330593064748
637,-51266.039982065566
638,-1961.5330593064748
673,-1168.688824653232
674,-30573.011804686405
675,-1168.688824653232
710,0.0
711,0.0
712,0.0
2,1, 7,21, 0, 9, 0.00,60.00,SummerDesignDay
525,-2526.802149311819
526,-71088.84153665869
527,-2526.802149311819
562,-2081.689948625608
563,-55007.77064143054
564,-2081.689948625608
599,-2745.068529983442
600,-35918.75908979828
601,-2745.068529983442
636,-2092.077174630656
637,-55044.64764425144
638,-2092.077174630656
673,-1245.4339064331991
674,-32817.01839659035
675,-1245.4339064331991
710,0.0
711,0.0
712,0.0
2,1, 7,21, 0,10, 0.00,60.00,SummerDesignDay
525,-2592.092990792556
526,-71300.25335009619
527,-2592.092990792556
562,-2322.5837089314055
563,-55608.16954159593
564,-2322.5837089314055
599,-2595.8556043590393
600,-35711.40370339642
601,-2595.8556043590393
636,-2267.4259630996626
637,-55485.2038897869
638,-2267.4259630996626
673,-1348.7324405006623
674,-33086.26765195176
675,-1348.7324405006623
710,0.0
711,0.0
712,0.0
2,1, 7,21, 0,11, 0.00,60.00,SummerDesignDay
525,-2663.6667289747525
526,-53442.79537391133
527,-2663.6667289747525
562,-2675.0009687244237
563,-42736.24597757073
564,-2675.0009687244237
599,-2179.5689367105692
600,-26849.006799218598
601,-2179.5689367105692
636,-2413.0457918951797
637,-42145.602361918725
638,-2413.0457918951797
673,-1449.4344177376988
674,-25208.00491020196
675,-1449.4344177376988
710,0.0
711,0.0
712,0.0
2,1, 7,21, 0,12, 0.00,60.00,SummerDesignDay
525,-2724.835476246432
526,-40072.465209957954
527,-2724.835476246432
562,-2986.7892751037903
563,-33152.8889004295
564,-2986.7892751037903
599,-1945.189049178929
600,-20258.14992211168
601,-1945.189049178929
636,-2533.0959642666826
637,-32152.42289869006
638,-2533.0959642666826
673,-1522.0843610638105
674,-19292.01307604898
675,-1522.0843610638105
710,0.0
711,0.0
712,0.0
2,1, 7,21, 0,13, 0.00,60.00,SummerDesignDay
525,-2774.658907213765
526,-26667.293531874453
527,-2774.658907213765
562,-3166.4967466876856
563,-23267.837658816123
564,-3166.4967466876856
599,-1886.2464776142551
600,-14029.0861237547
601,-1886.2464776142551
636,-2630.7907116136835
637,-22100.597272882933
638,-2630.7907116136835
673,-1585.379098901556
674,-13340.747322796442
675,-1585.379098901556
710,0.0
711,0.0
712,0.0
2,1, 7,21, 0,14, 0.00,60.00,SummerDesignDay
525,-2811.3999340243536
526,-24516.952652819145
527,-2811.3999340243536
562,-3175.1745400517925
563,-21592.677536008065
564,-3175.1745400517925
599,-1868.5927251076955
600,-12967.656865833478
601,-1868.5927251076955
636,-2702.3830656369405
637,-20552.323743893357
638,-2702.3830656369405
673,-1836.9134484248018
674,-12812.263227785415
675,-1836.9134484248018
710,0.0
711,0.0
712,0.0
2,1, 7,21, 0,15, 0.00,60.00,SummerDesignDay
525,-2839.8201383182363
526,-33630.17471525918
527,-2839.8201383182363
562,-3042.093206906587
563,-28184.36209170816
564,-3042.093206906587
599,-1838.5692087951277
600,-16970.372614862066
601,-1838.5692087951277
636,-2728.5722713497903
637,-27478.55356383402
638,-2728.5722713497903
673,-2389.5012013269393
674,-17937.812771790854
675,-2389.5012013269393
710,0.0
711,0.0
712,0.0
2,1, 7,21, 0,16, 0.00,60.00,SummerDesignDay
525,-2844.3038320456453
526,-47204.3436727515
527,-2844.3038320456453
562,-2913.0734135251496
563,-38191.208237297484
564,-2913.0734135251496
599,-1783.192475383992
600,-22955.50849536141
601,-1783.192475383992
636,-2695.337828628837
637,-37698.3226886554
638,-2695.337828628837
673,-2859.49058264534
674,-24891.50172908607
675,-2859.49058264534
710,0.0
711,0.0
712,0.0
2,1, 7,21, 0,17, 0.00,60.00,SummerDesignDay
525,-2818.62456476976
526,-56189.16293130539
527,-2818.62456476976
562,-2795.4600032441863
563,-44801.98974820756
564,-2795.4600032441863
599,-1714.7993812324992
600,-26876.709404897218
601,-1714.7993812324992
636,-2627.396191037857
637,-44413.106444547935
638,-2627.396191037857
673,-3029.955692066293
674,-29277.704329879693
675,-3029.955692066293
710,0.0
711,0.0
712,0.0
2,1, 7,21, 0,18, 0.00,60.00,SummerDesignDay
525,-2788.694133694173
526,-65137.568508524295
527,-2788.694133694173
562,-2655.2616991050454
563,-51346.549767452416
564,-2655.2616991050454
599,-1612.0151941468823
600,-30724.340792215724
601,-1612.0151941468823
636,-2614.243145482304
637,-51218.94746132747
638,-2614.243145482304
673,-2876.2004027327293
674,-33122.79487194277
675,-2876.2004027327293
710,0.0
711,0.0
712,0.0
2,1, 7,21, 0,19, 0.00,60.00,SummerDesignDay
525,-2738.201861947296
526,-65000.244982827855
527,-2738.201861947296
562,-2468.497602809765
563,-50922.00858551663
564,-2468.497602809765
599,-1496.174602297336
600,-30456.663418984303
601,-1496.174602297336
636,-2552.4713169653332
637,-51116.86861014695
638,-2552.4713169653332
673,-2412.890932754237
674,-32358.691858396036
675,-2412.890932754237
710,0.0
711,0.0
712,0.0
2,1, 7,21, 0,20, 0.00,60.00,SummerDesignDay
525,-5055.381070318786
526,-71371.70264168742
527,-5055.381070318786
562,-3959.5376339890768
563,-55351.72412393733
564,-3959.5376339890768
599,-2293.8875038436777
600,-33008.01940665486
601,-2293.8875038436777
636,-4108.483328265785
637,-55496.52219121546
638,-4108.483328265785
673,-3004.5395860103667
674,-34210.71323653421
675,-3004.5395860103667
710,0.0
711,0.0
712,0.0
2,1, 7,21, 0,21, 0.00,60.00,SummerDesignDay
525,-5062.354335049146
526,-57870.13881783284
527,-5062.354335049146
562,-3978.8520030521345
563,-44942.94081270806
564,-3978.8520030521345
599,-2384.801866265782
600,-26910.740783115907
601,-2384.801866265782
636,-4002.8118898434805
637,-44951.379218180366
638,-4002.8118898434805
673,-2829.349477550588
674,-27685.771412927057
675,-2829.349477550588
710,0.0
711,0.0
712,0.0
2,1, 7,21, 0,22, 0.00,60.00,SummerDesignDay
525,-4863.532484501336
526,-48421.27920785826
527,-4863.532484501336
562,-3304.9871416155306
563,-37100.38020400545
564,-3304.9871416155306
599,-1891.726960912046
600,-22153.27450561676
601,-1891.726960912046
636,-3401.411692577758
637,-37177.85951659079
638,-3401.411692577758
673,-2119.7657026368925
674,-22504.14751509822
675,-2118.885887175482
710,0.0
711,0.0
712,0.0
2,1, 7,21, 0,23, 0.00,60.00,SummerDesignDay
525,-4392.358542471105
526,-43535.76327853265
527,-4392.358542471105
562,-3284.0821954194307
563,-33687.63133994956
564,-3284.0821954194307
599,-1968.2886070165007
600,-20223.79023431517
601,-1968.2886070165007
636,-3273.377794146996
637,-33666.93639840437
638,-3273.377794146996
673,-2173.2383784591934
674,-20622.45658820983
675,-2173.2383784591934
710,0.0
711,0.0
712,0.0
2,1, 7,21, 0,24, 0.00,60.00,SummerDesignDay
525,-3606.4183775415863
526,-40367.93496485544
527,-3606.4183775415863
562,-2525.5663412126823
563,-31053.69468377905
564,-2525.5663412126823
599,-1477.8305401530636
600,-18605.084406683465
601,-1477.8305401530636
636,-2552.4726944455056
637,-31067.776223602606
638,-2552.4726944455056
673,-1596.9234664299486
674,-18814.176116454095
675,-1596.9234664299486
710,0.0
711,0.0
712,0.0
1,Chicago Ohare Intl Ap IL USA TMY3 WMO#=725300,  41.98, -87.92,  -6.00, 201.00
2,1, 1, 1, 0, 1, 0.00,60.00,Holiday
525,0.0
526,-16464.082914012197
527,51912.92452288328
562,0.0
563,-4112.349227012859
564,49191.500367765315
599,0.0
600,-1390.4197989518864
601,30620.103618116715
636,0.0
637,-1918.5320497472487
638,51891.444367273034
673,0.0
674,-1045.5953770141225
675,30948.55390511226
710,0.0
711,0.0
712,0.0
2,1, 1, 1, 0, 2, 0.00,60.00,Holiday
525,0.0
526,-17046.625197541427
527,58766.49477147846
562,0.0
563,-3212.204680580258
564,56274.40309645754
599,0.0
600,-854.8528750808101
601,34911.49821363974
636,0.0
637,-1003.8564386923244
638,59334.67825512047
673,0.0
674,-474.54558843946327
675,35324.58764342845
710,0.0
711,0.0
712,0.0
2,1, 1, 1, 0, 3, 0.00,60.00,Holiday
525,0.0
526,-7103.417244614517
527,26292.71349408169
562,0.0
563,-1112.6639995476187
564,26558.479831154822
599,0.0
600,-212.61868237711256
601,16548.463231669757
636,0.0
637,-207.13713938587595
638,27928.548450702976
673,0.0
674,-41.456033157438778
675,16736.297368938718
710,0.0
711,0.0
712,0.0
2,1, 1, 1, 0, 4, 0.00,60.00,Holiday
525,0.0
526,-6822.795042728685
527,26583.664687249126
562,0.0
563,-798.2971007593072
564,27132.63007734428
599,9.639350630163487
600,-49.155954950207767
601,16817.037787101526
636,52.054550781659298
637,20.244301411503938
638,28282.032039038753
673,115.70887831146563
674,115.70887831146563
675,16999.992150009
710,0.0
711,0.0
712,0.0
2,1, 1, 1, 0, 5, 0.00,60.00,Holiday
525,0.0
526,-6604.847890470715
527,26859.430474453406
562,0.0
563,-445.1640537960163
564,27625.456943938956
599,139.2222473389696
600,139.2222473389696
601,17095.73515914736
636,283.662030881617
637,283.662030881617
638,28686.322314711313
673,296.92646580581097
674,296.92646580581097
675,17273.920599535133
710,0.0
711,0.0
712,0.0
2,1, 1, 1, 0, 6, 0.00,60.00,Holiday
525,0.0
526,-6422.886278580194
527,27120.64526153855
562,0.0
563,-190.64401852369279
564,27933.0391989225
599,269.41227127549
600,269.41227127549
601,17252.52012897885
636,456.2583420865073
637,456.2583420865073
638,28887.542264991993
673,418.6177468658837
674,418.6177468658837
675,17421.606223708484
710,0.0
711,0.0
712,0.0
2,1, 1, 1, 0, 7, 0.00,60.00,Holiday
525,0.0
526,-6269.95097832532
527,27372.14511245915
562,104.88396082267355
563,97.98097101145079
564,28275.685253428703
599,428.8348222185717
600,428.8348222185717
601,17450.089856487593
636,667.3887779955736
637,667.3887779955736
638,29154.713087340348
673,564.5037966778606
674,564.5037966778606
675,17603.464915276058
710,0.0
711,0.0
712,0.0
2,1, 1, 1, 0, 8, 0.00,60.00,Holiday
525,0.0
526,-6857.788256352061
527,30758.730145647325
562,187.69655719534362
563,133.03489552472943
564,31330.379231299554
599,447.3201171267198
600,447.3201171267198
601,19271.718774907644
636,863.1258522619895
637,863.1258522619895
638,32330.590953294683
673,349.5553441784056
674,337.41812299664135
675,18771.82450599853
710,0.0
711,0.0
712,0.0
2,1, 1, 1, 0, 9, 0.00,60.00,Holiday
525,0.0
526,-11871.245565884747
527,52833.690631843754
562,0.0
563,-2645.2060460680445
564,49001.58439739942
599,5.873542236146325
600,-974.9893905367271
601,29883.05009851177
636,1174.304765774699
637,1174.304765774699
638,53334.49056532164
673,898.6076648815496
674,898.6076648815496
675,31946.747666204155
710,0.0
711,0.0
712,0.0
2,1, 1, 1, 0,10, 0.00,60.00,Holiday
525,0.0
526,-17885.73385362601
527,73948.53704085782
562,0.0
563,-9062.584743989495
564,62035.96975686849
599,0.0
600,-3248.7949145159505
601,39236.809081271385
636,1428.5827980355689
637,1428.5827980355689
638,74324.75014689444
673,1133.313667969125
674,1133.313667969125
675,44538.60841061272
710,0.0
711,0.0
712,0.0
2,1, 1, 1, 0,11, 0.00,60.00,Holiday
525,0.0
526,-22886.82477640493
527,77368.97368761398
562,0.0
563,-15813.335545864948
564,61173.17151253677
599,0.0
600,-3899.465466612273
601,41741.62604729141
636,1089.0365368569383
637,1089.0365368569383
638,79611.77559091163
673,789.1995523224963
674,789.1995523224963
675,47494.732770544935
710,0.0
711,0.0
712,0.0
2,1, 1, 1, 0,12, 0.00,60.00,Holiday
525,0.0
526,-17625.30421990483
527,54759.49205199263
562,0.0
563,-14102.718439156735
564,41023.879623652545
599,0.0
600,-2516.997384912957
601,30909.25648427087
636,50.94980368487692
637,-154.99142137591626
638,57072.94644207423
673,27.452664235738568
674,-146.3001354888204
675,33857.14769245022
710,0.0
711,0.0
712,0.0
2,1, 1, 1, 0,13, 0.00,60.00,Holiday
525,0.0
526,-8742.79502247825
527,25303.908012565134
562,0.0
563,-5940.279533516889
564,19042.2746442932
599,0.0
600,-1253.0577955285025
601,14538.646011307545
636,0.0
637,-556.2694343026736
638,26576.51338721039
673,0.0
674,-396.2630430739009
675,15693.052107962896
710,0.0
711,0.0
712,0.0
2,1, 1, 1, 0,14, 0.00,60.00,Holiday
525,0.0
526,-9041.272833504256
527,25204.53234909593
562,0.0
563,-5550.689604156316
564,20371.468513049225
599,0.0
600,-1349.5706193686444
601,14148.850516631712
636,0.0
637,-996.5301364393612
638,25769.528565504792
673,0.0
674,-731.8912322408729
675,15035.656855993844
710,0.0
711,0.0
712,0.0
2,1, 1, 1, 0,15, 0.00,60.00,Holiday
525,0.0
526,-9219.188783331641
527,25121.661936475677
562,0.0
563,-5233.36212601878
564,20186.4430865416
599,0.0
600,-1417.739848527567
601,13830.903440111657
636,0.0
637,-1300.3811865541775
638,25047.59412079751
673,0.0
674,-1064.27749366101
675,14423.9274926663
710,0.0
711,0.0
712,0.0
2,1, 1, 1, 0,16, 0.00,60.00,Holiday
525,0.0
526,-15560.569426859633
527,41832.72251337174
562,0.0
563,-8105.372311120635
564,34270.04223695716
599,0.0
600,-2483.3655412137036
601,23171.673340812384
636,0.0
637,-2560.7764384880015
638,40810.267120713725
673,0.0
674,-2087.5762084431026
675,24163.021998383672
710,0.0
711,0.0
712,0.0
2,1, 1, 1, 0,17, 0.00,60.00,Holiday
525,0.0
526,-15583.759086572833
527,41834.94675760762
562,0.0
563,-7523.282972425582
564,34645.32915801475
599,0.0
600,-2635.9107856055907
601,23386.630438630105
636,0.0
637,-2986.414647521479
638,40958.26932828119
673,0.0
674,-2216.086474249494
675,24244.694159368224
710,0.0
711,0.0
712,0.0
2,1, 1, 1, 0,18, 0.00,60.00,Holiday
525,0.0
526,-12397.97040425016
527,33503.23573826778
562,0.0
563,-5723.993727345119
564,28196.86540274456
599,0.0
600,-2154.760872822141
601,18965.29785188111
636,0.0
637,-2577.2758134278774
638,32851.31659806401
673,0.0
674,-1812.0602555767782
675,19616.138014453256
710,0.0
711,0.0
712,0.0
2,1, 1, 1, 0,19, 0.00,60.00,Holiday
525,0.0
526,-9224.35650344643
527,25146.455567893583
562,0.0
563,-3831.7973315427803
564,22097.210468955018
599,0.0
600,-1404.5344536405773
601,14224.622739374297
636,0.0
637,-1716.464613999875
638,24438.878277624313
673,0.0
674,-1187.569595004349
675,14769.98620962764
710,0.0
711,0.0
712,0.0
2,1, 1, 1, 0,20, 0.00,60.00,Holiday
525,0.0
526,-9150.993708116568
527,25182.630692219787
562,0.0
563,-3370.7775310668135
564,23071.082050045068
599,0.0
600,-1182.2221591904647
601,14629.5644180718
636,0.0
637,-1459.1800451717154
638,24989.30150041886
673,0.0
674,-943.2607171697813
675,14559.66310759173
710,0.0
711,0.0
712,0.0
2,1, 1, 1, 0,21, 0.00,60.00,Holiday
525,0.0
526,-9079.375762562984
527,25196.07901777766
562,0.0
563,-3295.7425949216413
564,23220.535895488796
599,0.0
600,-1199.8291896740175
601,14503.358305085267
636,0.0
637,-1544.653911634281
638,24570.859239956782
673,0.0
674,-989.6446138843754
675,14561.50783147582
710,0.0
711,0.0
712,0.0
2,1, 1, 1, 0,22, 0.00,60.00,Holiday
525,0.0
526,-9041.10544969819
527,25195.755373631837
562,0.0
563,-3161.5988583970907
564,23304.234226064513
599,0.0
600,-1181.4773047005322
601,14416.682346927097
636,0.0
637,-1584.95955014406
638,24382.852153002652
673,0.0
674,-1007.3464228059796
675,14713.009172255319
710,0.0
711,0.0
712,0.0
2,1, 1, 1, 0,23, 0.00,60.00,Holiday
525,0.0
526,-9010.379781032314
527,25199.989107813944
562,0.0