Program Version,EnergyPlus, Version 8.6.0-198c6a3cff, YMD=2019.03.03 18:45
1,5,Environment Title[],Latitude[deg],Longitude[deg],Time Zone[],Elevation[m]
2,6,Day of Simulation[],Month[],Day of Month[],DST Indicator[1=yes 0=no],Hour[],StartMinute[],EndMinute[],DayType
3,3,Cumulative Day of Simulation[],Month[],Day of Month[],DST Indicator[1=yes 0=no],DayType  ! When Daily Meters Requested
4,2,Cumulative Days of Simulation[],Month[]  ! When Monthly Meters Requested
5,1,Cumulative Days of Simulation[] ! When Run Period Meters Requested
31,1,Electricity:Facility [J] !Hourly
831,1,ElectricityNet:Facility [J] !Hourly
1043,1,Gas:Facility [J] !Hourly
End of Data Dictionary
1,DENVER-AURORA-BUCKLEY.AFB_CO_USA ANN HTG 99.6% CONDNS DB,  40.13,-105.24,  -7.00,1689.00
2,1,12,21, 0, 1, 0.00,60.00,WinterDesignDay
31,8891616.014139649
831,8891616.014139649
1043,27690805.418337455
2,1,12,21, 0, 2, 0.00,60.00,WinterDesignDay
31,8021290.865522696
831,8021290.865522696
1043,22132853.23693824
2,1,12,21, 0, 3, 0.00,60.00,WinterDesignDay
31,8996217.881604173
831,8996217.881604173
1043,25495145.10807542
2,1,12,21, 0, 4, 0.00,60.00,WinterDesignDay
31,8021290.865522696
831,8021290.865522696
1043,22140792.479507466
2,1,12,21, 0, 5, 0.00,60.00,WinterDesignDay
31,8996217.881604173
831,8996217.881604173
1043,25497258.538062164
2,1,12,21, 0, 6, 0.00,60.00,WinterDesignDay
31,8021290.865522696
831,8021290.865522696
1043,22137865.370393818
2,1,12,21, 0, 7, 0.00,60.00,WinterDesignDay
31,10187817.881604173
831,10187817.881604173
1043,25492639.534265903
2,1,12,21, 0, 8, 0.00,60.00,WinterDesignDay
31,7610003.338107826
831,7610003.338107826
1043,21285921.637340946
2,1,12,21, 0, 9, 0.00,60.00,WinterDesignDay
31,7722593.1100599509
831,7722593.11005995
1043,25777130.19967374
2,1,12,21, 0,10, 0.00,60.00,WinterDesignDay
31,6886935.707554397
831,6886935.707554396
1043,20801841.501786248
2,1,12,21, 0,11, 0.00,60.00,WinterDesignDay
31,7740122.023364442
831,7740122.0233644419
1043,25737084.585337376
2,1,12,21, 0,12, 0.00,60.00,WinterDesignDay
31,6895141.014677965
831,6895141.014677965
1043,20800667.318530203
2,1,12,21, 0,13, 0.00,60.00,WinterDesignDay
31,7762800.285423327
831,7762800.285423327
1043,25765242.60248791
2,1,12,21, 0,14, 0.00,60.00,WinterDesignDay
31,6902894.770742538
831,6902894.770742537
1043,20820354.96644196
2,1,12,21, 0,15, 0.00,60.00,WinterDesignDay
31,7763241.671508761
831,7763241.671508759
1043,25731824.649330435
2,1,12,21, 0,16, 0.00,60.00,WinterDesignDay
31,6896313.300911688
831,6896313.300911687
1043,20789499.76545827
2,1,12,21, 0,17, 0.00,60.00,WinterDesignDay
31,8861507.402272352
831,8861507.40227235
1043,25744992.338842464
2,1,12,21, 0,18, 0.00,60.00,WinterDesignDay
31,9093850.629767983
831,9093850.629767983
1043,20782793.443125115
2,1,12,21, 0,19, 0.00,60.00,WinterDesignDay
31,10096303.92318552
831,10096303.92318552
1043,26667622.14686856
2,1,12,21, 0,20, 0.00,60.00,WinterDesignDay
31,8410990.865584974
831,8410990.865584974
1043,22109182.77538594
2,1,12,21, 0,21, 0.00,60.00,WinterDesignDay
31,9385917.881666452
831,9385917.881666452
1043,25500842.782658779
2,1,12,21, 0,22, 0.00,60.00,WinterDesignDay
31,8410990.865584974
831,8410990.865584974
1043,22153508.013471474
2,1,12,21, 0,23, 0.00,60.00,WinterDesignDay
31,9385917.881604173
831,9385917.881604175
1043,25501090.31563408
2,1,12,21, 0,24, 0.00,60.00,WinterDesignDay
31,8410990.865522696
831,8410990.865522696
1043,22143415.503096675
1,DENVER-AURORA-BUCKLEY.AFB_CO_USA ANN CLG .4% CONDNS DB=>MWB,  40.13,-105.24,  -7.00,1689.00
2,1, 7,21, 0, 1, 0.00,60.00,SummerDesignDay
31,40917385.93389724
831,40917385.93389724
1043,0.0
2,1, 7,21, 0, 2, 0.00,60.00,SummerDesignDay
31,38350761.15443896
831,38350761.15443896
1043,0.0
2,1, 7,21, 0, 3, 0.00,60.00,SummerDesignDay
31,39794428.83146901
831,39794428.83146901
1043,0.0
2,1, 7,21, 0, 4, 0.00,60.00,SummerDesignDay
31,38265396.00350266
831,38265396.00350266
1043,0.0
2,1, 7,21, 0, 5, 0.00,60.00,SummerDesignDay
31,39371707.96767104
831,39371707.96767104
1043,0.0
2,1, 7,21, 0, 6, 0.00,60.00,SummerDesignDay
31,37140414.6800093
831,37140414.6800093
1043,0.0
2,1, 7,21, 0, 7, 0.00,60.00,SummerDesignDay
31,44044879.81033246
831,44044879.81033246
1043,0.0
2,1, 7,21, 0, 8, 0.00,60.00,SummerDesignDay
31,43126637.59103276
831,43126637.59103277
1043,0.0
2,1, 7,21, 0, 9, 0.00,60.00,SummerDesignDay
31,44066233.28136631
831,44066233.2813663
1043,0.0
2,1, 7,21, 0,10, 0.00,60.00,SummerDesignDay
31,45194785.43152335
831,45194785.43152335
1043,0.0
2,1, 7,21, 0,11, 0.00,60.00,SummerDesignDay
31,46194696.82623862
831,46194696.82623862
1043,0.0
2,1, 7,21, 0,12, 0.00,60.00,SummerDesignDay
31,47263630.647930588
831,47263630.64793058
1043,0.0
2,1, 7,21, 0,13, 0.00,60.00,SummerDesignDay
31,48173589.50441159
831,48173589.504411589
1043,0.0
2,1, 7,21, 0,14, 0.00,60.00,SummerDesignDay
31,48940202.34396891
831,48940202.343968909
1043,0.0
2,1, 7,21, 0,15, 0.00,60.00,SummerDesignDay
31,49629120.74896456
831,49629120.74896456
1043,0.0
2,1, 7,21, 0,16, 0.00,60.00,SummerDesignDay
31,49588537.92544568
831,49588537.925445679
1043,0.0
2,1, 7,21, 0,17, 0.00,60.00,SummerDesignDay
31,49261554.236429218
831,49261554.236429218
1043,0.0
2,1, 7,21, 0,18, 0.00,60.00,SummerDesignDay
31,48681180.53690967
831,48681180.53690967
1043,0.0
2,1, 7,21, 0,19, 0.00,60.00,SummerDesignDay
31,48062234.83526714
831,48062234.83526714
1043,0.0
2,1, 7,21, 0,20, 0.00,60.00,SummerDesignDay
31,43247197.1726872
831,43247197.1726872
1043,0.0
2,1, 7,21, 0,21, 0.00,60.00,SummerDesignDay
31,41233753.29613679
831,41233753.29613679
1043,0.0
2,1, 7,21, 0,22, 0.00,60.00,SummerDesignDay
31,43113318.71528674
831,43113318.71528673
1043,0.0
2,1, 7,21, 0,23, 0.00,60.00,SummerDesignDay
31,39732449.498289797
831,39732449.498289797
1043,0.0
2,1, 7,21, 0,24, 0.00,60.00,SummerDesignDay
31,43221547.329594019
831,43221547.32959401
1043,0.0
1,Broomfield Jeffco  Boulder   S CO USA TMY3 WMO#=724699,  40.13,-105.24,  -7.00,1689.00
2,1, 1, 1, 0, 1, 0.00,60.00,Holiday
31,6404338.596677196
831,6404338.596677196
1043,0.0
2,1, 1, 1, 0, 2, 0.00,60.00,Holiday
31,6404338.596677196
831,6404338.596677196
1043,0.0
2,1, 1, 1, 0, 3, 0.00,60.00,Holiday
31,6404338.596677196
831,6404338.596677196
1043,0.0
2,1, 1, 1, 0, 4, 0.00,60.00,Holiday
31,6404338.596677196
831,6404338.596677196
1043,0.0
2,1, 1, 1, 0, 5, 0.00,60.00,Holiday
31,6404338.596677196
831,6404338.596677196
1043,0.0
2,1, 1, 1, 0, 6, 0.00,60.00,Holiday
31,6404338.596677196
831,6404338.596677196
1043,0.0
2,1, 1, 1, 0, 7, 0.00,60.00,Holiday
31,7595938.596677196
831,7595938.596677195
1043,0.0
2,1, 1, 1, 0, 8, 0.00,60.00,Holiday
31,6128818.596677196
831,6128818.596677195
1043,0.0
2,1, 1, 1, 0, 9, 0.00,60.00,Holiday
31,5395258.596677196
831,5395258.596677196
1043,0.0
2,1, 1, 1, 0,10, 0.00,60.00,Holiday
31,5395258.596677196
831,5395258.596677196
1043,0.0
2,1, 1, 1, 0,11, 0.00,60.00,Holiday
31,5395258.596677196
831,5395258.596677196
1043,0.0
2,1, 1, 1, 0,12, 0.00,60.00,Holiday
31,5395258.596677196
831,5395258.596677196
1043,0.0
2,1, 1, 1, 0,13, 0.00,60.00,Holiday
31,5395258.596677196
831,5395258.596677196
1043,0.0
2,1, 1, 1, 0,14, 0.00,60.00,Holiday
31,5395258.596677196
831,5395258.596677196
1043,0.0
2,1, 1, 1, 0,15, 0.00,60.00,Holiday
31,5395258.596677196
831,5395258.596677196
1043,0.0
2,1, 1, 1, 0,16, 0.00,60.00,Holiday
31,5395258.596677196
831,5395258.596677196
1043,0.0
2,1, 1, 1, 0,17, 0.00,60.00,Holiday
31,6128818.596677196
831,6128818.596677196
1043,0.0
2,1, 1, 1, 0,18, 0.00,60.00,Holiday
31,7595938.596677196
831,7595938.596677195
1043,0.0
2,1, 1, 1, 0,19, 0.00,60.00,Holiday
31,7595938.596677196
831,7595938.596677195
1043,0.0
2,1, 1, 1, 0,20, 0.00,60.00,Holiday
31,6794038.596677196
831,6794038.596677196
1043,0.0
2,1, 1, 1, 0,21, 0.00,60.00,Holiday
31,6794038.596677196
831,6794038.596677196
1043,0.0
2,1, 1, 1, 0,22, 0.00,60.00,Holiday
31,6794038.596677196
831,6794038.596677196
1043,0.0
2,1, 1, 1, 0,23, 0.00,60.00,Holiday
31,6794038.596677196
831,6794038.596677196
1043,0.0
2,1, 1, 1, 0,24, 0.00,60.00,Holiday
31,6794038.596677196
831,6794038.596677196
1043,0.0
2,2, 1, 2, 0, 1, 0.00,60.00,Monday
31,9469604.825749658
831,9469604.825749658
1043,0.0
2,2, 1, 2, 0, 2, 0.00,60.00,Monday
31,9469604.825749658
831,9469604.825749658
1043,0.0
2,2, 1, 2, 0, 3, 0.00,60.00,Monday
31,9469604.825749658
831,9469604.825749658
1043,0.0
2,2, 1, 2, 0, 4, 0.00,60.00,Monday
31,9469604.825749658
831,9469604.825749658
1043,0.0
2,2, 1, 2, 0, 5, 0.00,60.00,Monday
31,9469604.825749658
831,9469604.825749658
1043,0.0
2,2, 1, 2, 0, 6, 0.00,60.00,Monday
31,9469604.825749658
831,9469604.825749658
1043,0.0
2,2, 1, 2, 0, 7, 0.00,60.00,Monday
31,33395507.32110006
831,33395507.321100058
1043,5877130.26368867
2,2, 1, 2, 0, 8, 0.00,60.00,Monday
31,39135723.91417525
831,39135723.91417525
1043,7398694.73288506
2,2, 1, 2, 0, 9, 0.00,60.00,Monday
31,39549379.16576905
831,39549379.16576905
1043,0.0
2,2, 1, 2, 0,10, 0.00,60.00,Monday
31,34821060.28102092
831,34821060.281020928
1043,0.0
2,2, 1, 2, 0,11, 0.00,60.00,Monday
31,32149191.707944059
831,32149191.707944059
1043,0.0
2,2, 1, 2, 0,12, 0.00,60.00,Monday
31,30543135.54911883
831,30543135.54911883
1043,0.0
2,2, 1, 2, 0,13, 0.00,60.00,Monday
31,30240391.10483151
831,30240391.104831514
1043,0.0
2,2, 1, 2, 0,14, 0.00,60.00,Monday
31,30824334.47247895
831,30824334.47247895
1043,0.0
2,2, 1, 2, 0,15, 0.00,60.00,Monday
31,30726873.5458988
831,30726873.545898796
1043,0.0
2,2, 1, 2, 0,16, 0.00,60.00,Monday
31,30660099.248494779
831,30660099.248494779
1043,0.0
2,2, 1, 2, 0,17, 0.00,60.00,Monday
31,32761960.63775336
831,32761960.63775336
1043,0.0
2,2, 1, 2, 0,18, 0.00,60.00,Monday
31,27757387.864343995
831,27757387.864343995
1043,0.0
2,2, 1, 2, 0,19, 0.00,60.00,Monday
31,25620980.739266389
831,25620980.739266386
1043,0.0
2,2, 1, 2, 0,20, 0.00,60.00,Monday
31,11853154.258345897
831,11853154.258345895
1043,0.0
2,2, 1, 2, 0,21, 0.00,60.00,Monday
31,10637784.395628443
831,10637784.395628443
1043,0.0
2,2, 1, 2, 0,22, 0.00,60.00,Monday
31,10637784.395628443
831,10637784.395628443
1043,0.0
2,2, 1, 2, 0,23, 0.00,60.00,Monday
31,9543951.519120457
831,9543951.519120455
1043,0.0
2,2, 1, 2, 0,24, 0.00,60.00,Monday
31,7197449.08321209
831,7197449.08321209
1043,0.0
2,3, 1, 3, 0, 1, 0.00,60.00,Tuesday
31,9469604.825749658
831,9469604.825749658
1043,0.0
2,3, 1, 3, 0, 2, 0.00,60.00,Tuesday
31,9469604.825749658
831,9469604.825749658
1043,0.0
2,3, 1, 3, 0, 3, 0.00,60.00,Tuesday
31,9469604.825749658
831,9469604.825749658
1043,0.0
2,3, 1, 3, 0, 4, 0.00,60.00,Tuesday
31,9469604.825749658
831,9469604.825749658
1043,0.0
2,3, 1, 3, 0, 5, 0.00,60.00,Tuesday
31,9469604.825749658
831,9469604.825749658
1043,0.0
2,3, 1, 3, 0, 6, 0.00,60.00,Tuesday
31,9469604.825749658
831,9469604.825749658
1043,0.0
2,3, 1, 3, 0, 7, 0.00,60.00,Tuesday
31,31071011.732625467
831,31071011.732625467
1043,4382942.445451826
2,3, 1, 3, 0, 8, 0.00,60.00,Tuesday
31,36529519.71350037
831,36529519.71350037
1043,7901799.174718374
2,3, 1, 3, 0, 9, 0.00,60.00,Tuesday
31,35710768.08481195
831,35710768.08481195
1043,0.0
2,3, 1, 3, 0,10, 0.00,60.00,Tuesday
31,31971378.634540216
831,31971378.634540216
1043,0.0
2,3, 1, 3, 0,11, 0.00,60.00,Tuesday
31,30838917.30415605
831,30838917.30415605
1043,0.0
2,3, 1, 3, 0,12, 0.00,60.00,Tuesday
31,29799138.8597821
831,29799138.8597821
1043,0.0
2,3, 1, 3, 0,13, 0.00,60.00,Tuesday
31,27828679.229607688
831,27828679.22960768
1043,0.0
2,3, 1, 3, 0,14, 0.00,60.00,Tuesday
31,30483948.457105355
831,30483948.457105355
1043,0.0
2,3, 1, 3, 0,15, 0.00,60.00,Tuesday
31,30445543.64910299
831,30445543.64910299
1043,0.0
2,3, 1, 3, 0,16, 0.00,60.00,Tuesday
31,30486307.115796329
831,30486307.115796329
1043,0.0
2,3, 1, 3, 0,17, 0.00,60.00,Tuesday
31,31905144.32249517
831,31905144.32249517
1043,0.0
2,3, 1, 3, 0,18, 0.00,60.00,Tuesday
31,23894423.909541586
831,23894423.90954158
1043,0.0
2,3, 1, 3, 0,19, 0.00,60.00,Tuesday
31,19247843.03020638
831,19247843.03020638
1043,0.0
2,3, 1, 3, 0,20, 0.00,60.00,Tuesday
31,11853154.258345897
831,11853154.258345895
1043,0.0
2,3, 1, 3, 0,21, 0.00,60.00,Tuesday
31,10637784.395628443
831,10637784.395628443
1043,0.0
2,3, 1, 3, 0,22, 0.00,60.00,Tuesday
31,10637784.395628443
831,10637784.395628443
1043,0.0
2,3, 1, 3, 0,23, 0.00,60.00,Tuesday
31,9543951.519120457
831,9543951.519120455
1043,0.0
2,3, 1, 3, 0,24, 0.00,60.00,Tuesday
31,7197449.08321209
831,7197449.08321209
1043,0.0
2,4, 1, 4, 0, 1, 0.00,60.00,Wednesday
31,9469604.825749658
831,9469604.825749658
1043,0.0
2,4, 1, 4, 0, 2, 0.00,60.00,Wednesday
31,9469604.825749658
831,9469604.825749658
1043,0.0
2,4, 1, 4, 0, 3, 0.00,60.00,Wednesday
31,9469604.825749658
831,9469604.825749658
1043,0.0
2,4, 1, 4, 0, 4, 0.00,60.00,Wednesday
31,9469604.825749658
831,9469604.825749658
1043,0.0
2,4, 1, 4, 0, 5, 0.00,60.00,Wednesday
31,9469604.825749658
831,9469604.825749658
1043,0.0
2,4, 1, 4, 0, 6, 0.00,60.00,Wednesday
31,9469604.825749658
831,9469604.825749658
1043,0.0
2,4, 1, 4, 0, 7, 0.00,60.00,Wednesday
31,24543833.399898016
831,24543833.39989802
1043,1817820.7671864464
2,4, 1, 4, 0, 8, 0.00,60.00,Wednesday
31,27523002.116155
831,27523002.11615499
1043,0.0
2,4, 1, 4, 0, 9, 0.00,60.00,Wednesday
31,30155597.220100795
831,30155597.220100795
1043,0.0
2,4, 1, 4, 0,10, 0.00,60.00,Wednesday
31,29746005.54175961
831,29746005.54175961
1043,0.0
2,4, 1, 4, 0,11, 0.00,60.00,Wednesday
31,29955529.66473385
831,29955529.664733855
1043,0.0
2,4, 1, 4, 0,12, 0.00,60.00,Wednesday
31,30813045.609376089
831,30813045.609376097
1043,0.0
2,4, 1, 4, 0,13, 0.00,60.00,Wednesday
31,29103794.702471913
831,29103794.702471906
1043,0.0
2,4, 1, 4, 0,14, 0.00,60.00,Wednesday
31,32517282.354926554
831,32517282.354926558
1043,0.0
2,4, 1, 4, 0,15, 0.00,60.00,Wednesday
31,33191228.795049639
831,33191228.795049635
1043,0.0
2,4, 1, 4, 0,16, 0.00,60.00,Wednesday
31,33247104.432090887
831,33247104.432090895
1043,0.0
2,4, 1, 4, 0,17, 0.00,60.00,Wednesday
31,33973092.03110504
831,33973092.03110504
1043,0.0
2,4, 1, 4, 0,18, 0.00,60.00,Wednesday
31,23842511.88476963
831,23842511.88476963
1043,0.0
2,4, 1, 4, 0,19, 0.00,60.00,Wednesday
31,17918421.957228334
831,17918421.95722833
1043,0.0
2,4, 1, 4, 0,20, 0.00,60.00,Wednesday
31,10953154.258345897
831,10953154.258345895
1043,0.0
2,4, 1, 4, 0,21, 0.00,60.00,Wednesday
31,9737784.395628443
831,9737784.395628443
1043,0.0
2,4, 1, 4, 0,22, 0.00,60.00,Wednesday
31,9737784.395628443
831,9737784.395628443
1043,0.0
2,4, 1, 4, 0,23, 0.00,60.00,Wednesday
31,8643951.519120457
831,8643951.519120455
1043,0.0
2,4, 1, 4, 0,24, 0.00,60.00,Wednesday
31,7047449.08321209
831,7047449.08321209
1043,0.0
2,5, 1, 5, 0, 1, 0.00,60.00,Thursday
31,9469604.825749658
831,9469604.825749658
1043,0.0
2,5, 1, 5, 0, 2, 0.00,60.00,Thursday
31,9469604.825749658
831,9469604.825749658
1043,0.0
2,5, 1, 5, 0, 3, 0.00,60.00,Thursday
31,9469604.825749658
831,9469604.825749658
1043,0.0
2,5, 1, 5, 0, 4, 0.00,60.00,Thursday
31,9469604.825749658
831,9469604.825749658
1043,0.0
2,5, 1, 5, 0, 5, 0.00,60.00,Thursday
31,8869604.825749658
831,8869604.825749658
1043,0.0
2,5, 1, 5, 0, 6, 0.00,60.00,Thursday
31,8569604.825749658
831,8569604.825749658
1043,0.0
2,5, 1, 5, 0, 7, 0.00,60.00,Thursday
31,20807068.644126838
831,20807068.644126838
1043,0.0
2,5, 1, 5, 0, 8, 0.00,60.00,Thursday
31,22737770.185875589
831,22737770.185875589
1043,0.0
2,5, 1, 5, 0, 9, 0.00,60.00,Thursday
31,29948225.1619024
831,29948225.161902407
1043,0.0
2,5, 1, 5, 0,10, 0.00,60.00,Thursday
31,29741932.346233205
831,29741932.346233198
1043,0.0
2,5, 1, 5, 0,11, 0.00,60.00,Thursday
31,30454097.344348525
831,30454097.344348525
1043,0.0
2,5, 1, 5, 0,12, 0.00,60.00,Thursday
31,31237982.102494174
831,31237982.10249417
1043,0.0
2,5, 1, 5, 0,13, 0.00,60.00,Thursday
31,28468176.87259279
831,28468176.872592786
1043,0.0
2,5, 1, 5, 0,14, 0.00,60.00,Thursday
31,31642806.434170516
831,31642806.434170516
1043,0.0
2,5, 1, 5, 0,15, 0.00,60.00,Thursday
31,31951132.205124499
831,31951132.205124499
1043,0.0
2,5, 1, 5, 0,16, 0.00,60.00,Thursday
31,31825612.18697496
831,31825612.18697496
1043,0.0
2,5, 1, 5, 0,17, 0.00,60.00,Thursday
31,32574144.94793895
831,32574144.94793895
1043,0.0
2,5, 1, 5, 0,18, 0.00,60.00,Thursday
31,24418955.948696965
831,24418955.94869696
1043,0.0
2,5, 1, 5, 0,19, 0.00,60.00,Thursday
31,19063887.436098979
831,19063887.436098976
1043,0.0
2,5, 1, 5, 0,20, 0.00,60.00,Thursday
31,11853154.258345897
831,11853154.258345895
1043,0.0
2,5, 1, 5, 0,21, 0.00,60.00,Thursday
31,10487784.395628443
831,10487784.395628443
1043,0.0
2,5, 1, 5, 0,22, 0.00,60.00,Thursday
31,10637784.395628443
831,10637784.395628443
1043,0.0
2,5, 1, 5, 0,23, 0.00,60.00,Thursday
31,9543951.519120457
831,9543951.519120455
1043,0.0
2,5, 1, 5, 0,24, 0.00,60.00,Thursday
31,7197449.08321209
831,7197449.08321209
1043,0.0
2,6, 1, 6, 0, 1, 0.00,60.00,Friday
31,9469604.825749658
831,9469604.825749658
1043,0.0
2,6, 1, 6, 0, 2, 0.00,60.00,Friday
31,9469604.825749658
831,9469604.825749658
1043,0.0
2,6, 1, 6, 0, 3, 0.00,60.00,Friday
31,9469604.825749658
831,9469604.825749658
1043,0.0
2,6, 1, 6, 0, 4, 0.00,60.00,Friday
31,9469604.825749658
831,9469604.825749658
1043,0.0
2,6, 1, 6, 0, 5, 0.00,60.00,Friday
31,9469604.825749658
831,9469604.825749658
1043,0.0
2,6, 1, 6, 0, 6, 0.00,60.00,Friday
31,9469604.825749658
831,9469604.825749658
1043,0.0
2,6, 1, 6, 0, 7, 0.00,60.00,Friday
31,23333986.467952566
831,23333986.467952569
1043,1786036.450549729
2,6, 1, 6, 0, 8, 0.00,60.00,Friday
31,33003309.818250065
831,33003309.81825006
1043,423923.181883285
2,6, 1, 6, 0, 9, 0.00,60.00,Friday
31,33167065.96776391
831,33167065.967763906
1043,0.0
2,6, 1, 6, 0,10, 0.00,60.00,Friday
31,31451027.828378329
831,31451027.828378329
1043,0.0
2,6, 1, 6, 0,11, 0.00,60.00,Friday
31,30851962.36952347
831,30851962.36952347
1043,0.0
2,6, 1, 6, 0,12, 0.00,60.00,Friday
31,30800020.778423665
831,30800020.778423665
1043,0.0
2,6, 1, 6, 0,13, 0.00,60.00,Friday
31,32056294.825858497
831,32056294.8258585
1043,0.0
2,6, 1, 6, 0,14, 0.00,60.00,Friday
31,30688877.3159164
831,30688877.3159164
1043,0.0
2,6, 1, 6, 0,15, 0.00,60.00,Friday
31,30729196.802757019
831,30729196.80275702
1043,0.0
2,6, 1, 6, 0,16, 0.00,60.00,Friday
31,31319610.04835082
831,31319610.04835082
1043,0.0
2,6, 1, 6, 0,17, 0.00,60.00,Friday
31,32761960.63775336
831,32761960.63775336
1043,0.0
2,6, 1, 6, 0,18, 0.00,60.00,Friday
31,29643010.283043527
831,29643010.283043527
1043,0.0
2,6, 1, 6, 0,19, 0.00,60.00,Friday
31,25629973.399360867
831,25629973.399360867
1043,0.0
2,6, 1, 6, 0,20, 0.00,60.00,Friday
31,11853154.258345897
831,11853154.258345895
1043,0.0
2,6, 1, 6, 0,21, 0.00,60.00,Friday
31,10637784.395628443
831,10637784.395628443
1043,0.0
2,6, 1, 6, 0,22, 0.00,60.00,Friday
31,10637784.395628443
831,10637784.395628443
1043,0.0
2,6, 1, 6, 0,23, 0.00,60.00,Friday
31,9543951.519120457
831,9543951.519120455
1043,0.0
2,6, 1, 6, 0,24, 0.00,60.00,Friday
31,7197449.08321209
831,7197449.08321209
1043,0.0
2,7, 1, 7, 0, 1, 0.00,60.00,Saturday
31,6404338.596677196
831,6404338.596677196
1043,0.0
2,7, 1, 7, 0, 2, 0.00,60.00,Saturday
31,6404338.596677196
831,6404338.596677196
1043,0.0
2,7, 1, 7, 0, 3, 0.00,60.00,Saturday
31,6404338.596677196
831,6404338.596677196
1043,0.0
2,7, 1, 7, 0, 4, 0.00,60.00,Saturday
31,6404338.596677196
831,6404338.596677196
1043,0.0
2,7, 1, 7, 0, 5, 0.00,60.00,Saturday
31,6404338.596677196
831,6404338.596677196
1043,0.0
2,7, 1, 7, 0, 6, 0.00,60.00,Saturday
31,6404338.596677196
831,6404338.596677196
1043,0.0
2,7, 1, 7, 0, 7, 0.00,60.00,Saturday
31,7595938.596677196
831,7595938.596677195
1043,0.0
2,7, 1, 7, 0, 8, 0.00,60.00,Saturday
31,6128818.596677196
831,6128818.596677195
1043,0.0
2,7, 1, 7, 0, 9, 0.00,60.00,Saturday
31,5395258.596677196
831,5395258.596677196
1043,0.0
2,7, 1, 7, 0,10, 0.00,60.00,Saturday
31,5395258.596677196
831,5395258.596677196
1043,0.0
2,7, 1, 7, 0,11, 0.00,60.00,Saturday
31,5395258.596677196
831,5395258.596677196
1043,0.0
2,7, 1, 7, 0,12, 0.00,60.00,Saturday
31,5395258.596677196
831,5395258.596677196
1043,0.0
2,7, 1, 7, 0,13, 0.00,60.00,Saturday
31,5395258.596677196
831,5395258.596677196
1043,0.0
2,7, 1, 7, 0,14, 0.00,60.00,Saturday
31,5395258.596677196
831,5395258.596677196
1043,0.0
2,7, 1, 7, 0,15, 0.00,60.00,Saturday
31,5395258.596677196
831,5395258.596677196
1043,0.0
2,7, 1, 7, 0,16, 0.00,60.00,Saturday
31,5395258.596677196
831,5395258.596677196
1043,0.0
2,7, 1, 7, 0,17, 0.00,60.00,Saturday
31,6128818.596677196
831,6128818.596677196
1043,0.0
2,7, 1, 7, 0,18, 0.00,60.00,Saturday
31,7595938.596677196
831,7595938.596677195
1043,0.0
2,7, 1, 7, 0,19, 0.00,60.00,Saturday
31,7595938.596677196
831,7595938.596677195
1043,0.0
2,7, 1, 7, 0,20, 0.00,60.00,Saturday
31,6794038.596677196
831,6794038.596677196
1043,0.0
2,7, 1, 7, 0,21, 0.00,60.00,Saturday
31,6794038.596677196
831,6794038.596677196
1043,0.0
2,7, 1, 7, 0,22, 0.00,60.00,Saturday
31,6794038.596677196
831,6794038.596677196
1043,0.0
2,7, 1, 7, 0,23, 0.00,60.00,Saturday
31,6794038.596677196
831,6794038.596677196
1043,0.0
2,7, 1, 7, 0,24, 0.00,60.00,Saturday
31,6794038.596677196
831,6794038.596677196
1043,0.0
2,8, 1, 8, 0, 1, 0.00,60.00,Sunday
31,6404338.596677196
831,6404338.596677196
1043,0.0
2,8, 1, 8, 0, 2, 0.00,60.00,Sunday
31,6404338.596677196
831,6404338.596677196
1043,0.0
2,8, 1, 8, 0, 3, 0.00,60.00,Sunday
31,6404338.596677196
831,6404338.596677196
1043,0.0
2,8, 1, 8, 0, 4, 0.00,60.00,Sunday
31,6404338.596677196
831,6404338.596677196
1043,0.0
2,8, 1, 8, 0, 5, 0.00,60.00,Sunday
31,6404338.596677196
831,6404338.596677196
1043,0.0
2,8, 1, 8, 0, 6, 0.00,60.00,Sunday
31,6404338.596677196
831,6404338.596677196
1043,0.0
2,8, 1, 8, 0, 7, 0.00,60.00,Sunday
31,7595938.596677196
831,7595938.596677195
1043,0.0
2,8, 1, 8, 0, 8, 0.00,60.00,Sunday
31,6128818.596677196
831,6128818.596677195
1043,0.0
2,8, 1, 8, 0, 9, 0.00,60.00,Sunday
31,5395258.596677196
831,5395258.596677196
1043,0.0
2,8, 1, 8, 0,10, 0.00,60.00,Sunday
31,5395258.596677196
831,5395258.596677196
1043,0.0
2,8, 1, 8, 0,11, 0.00,60.00,Sunday
31,5395258.596677196
831,5395258.596677196
1043,0.0
2,8, 1, 8, 0,12, 0.00,60.00,Sunday
31,5395258.596677196
831,5395258.596677196
1043,0.0
2,8, 1, 8, 0,13, 0.00,60.00,Sunday
31,5395258.596677196
831,5395258.596677196
1043,0.0
2,8, 1, 8, 0,14, 0.00,60.00,Sunday
31,5395258.596677196
831,5395258.596677196
1043,0.0
2,8, 1, 8, 0,15, 0.00,60.00,Sunday
31,5395258.596677196
831,5395258.596677196
1043,0.0
2,8, 1, 8, 0,16, 0.00,60.00,Sunday
31,5395258.596677196
831,5395258.596677196
1043,0.0
2,8, 1, 8, 0,17, 0.00,60.00,Sunday
31,6128818.596677196
831,6128818.596677196
1043,0.0
2,8, 1, 8, 0,18, 0.00,60.00,Sunday
31,7595938.596677196
831,7595938.596677195
1043,0.0
2,8, 1, 8, 0,19, 0.00,60.00,Sunday
31,7595938.596677196
831,7595938.596677195
1043,0.0
2,8, 1, 8, 0,20, 0.00,60.00,Sunday
31,6794038.596677196
831,6794038.596677196
1043,0.0
2,8, 1, 8, 0,21, 0.00,60.00,Sunday
31,6794038.596677196
831,6794038.596677196
1043,0.0
2,8, 1, 8, 0,22, 0.00,60.00,Sunday
31,6794038.596677196
831,6794038.596677196
1043,0.0
2,8, 1, 8, 0,23, 0.00,60.00,Sunday
31,6794038.596677196
831,6794038.596677196
1043,0.0
2,8, 1, 8, 0,24, 0.00,60.00,Sunday
31,6794038.596677196
831,6794038.596677196
1043,0.0
2,9, 1, 9, 0, 1, 0.00,60.00,Monday
31,9469604.825749658
831,9469604.825749658
1043,0.0
2,9, 1, 9, 0, 2, 0.00,60.00,Monday
31,9469604.825749658
831,9469604.825749658
1043,0.0
2,9, 1, 9, 0, 3, 0.00,60.00,Monday
31,9469604.825749658
831,9469604.825749658
1043,0.0
2,9, 1, 9, 0, 4, 0.00,60.00,Monday
31,9469604.825749658
831,9469604.825749658
1043,0.0
2,9, 1, 9, 0, 5, 0.00,60.00,Monday
31,9469604.825749658
831,9469604.825749658
1043,0.0
2,9, 1, 9, 0, 6, 0.00,60.00,Monday
31,9469604.825749658
831,9469604.825749658
1043,0.0
2,9, 1, 9, 0, 7, 0.00,60.00,Monday
31,37294114.300663437
831,37294114.300663437
1043,19611501.059223828
2,9, 1, 9, 0, 8, 0.00,60.00,Monday
31,40797293.64265905
831,40797293.64265905
1043,22522421.690447224
2,9, 1, 9, 0, 9, 0.00,60.00,Monday
31,40905051.83228682
831,40905051.832286838
1043,24509.58388503463
2,9, 1, 9, 0,10, 0.00,60.00,Monday
31,34176797.40506337
831,34176797.405063379
1043,0.0
2,9, 1, 9, 0,11, 0.00,60.00,Monday
31,32152712.20360728
831,32152712.203607274
1043,0.0
2,9, 1, 9, 0,12, 0.00,60.00,Monday
31,30915091.046333054
831,30915091.046333054
1043,0.0
2,9, 1, 9, 0,13, 0.00,60.00,Monday
31,27988562.803621968
831,27988562.803621964
1043,0.0
2,9, 1, 9, 0,14, 0.00,60.00,Monday
31,29426021.502675527
831,29426021.502675527
1043,0.0
2,9, 1, 9, 0,15, 0.00,60.00,Monday
31,29968108.499882267
831,29968108.499882267
1043,0.0
2,9, 1, 9, 0,16, 0.00,60.00,Monday
31,30319383.788368007
831,30319383.788368007
1043,0.0
2,9, 1, 9, 0,17, 0.00,60.00,Monday
31,32599603.080001084
831,32599603.08000108
1043,0.0
2,9, 1, 9, 0,18, 0.00,60.00,Monday
31,27609876.16621823
831,27609876.166218226
1043,0.0
2,9, 1, 9, 0,19, 0.00,60.00,Monday
31,25206477.34466578
831,25206477.34466578
1043,0.0
2,9, 1, 9, 0,20, 0.00,60.00,Monday
31,11853154.258345897
831,11853154.258345895
1043,0.0
2,9, 1, 9, 0,21, 0.00,60.00,Monday
31,10637784.395628443
831,10637784.395628443
1043,0.0
2,9, 1, 9, 0,22, 0.00,60.00,Monday
31,10637784.395628443
831,10637784.395628443
1043,0.0
2,9, 1, 9, 0,23, 0.00,60.00,Monday
31,9543951.519120457
831,9543951.519120455
1043,0.0
2,9, 1, 9, 0,24, 0.00,60.00,Monday
31,7197449.08321209
831,7197449.08321209
1043,0.0
2,10, 1,10, 0, 1, 0.00,60.00,Tuesday
31,9469604.825749658
831,9469604.825749658
1043,0.0
2,10, 1,10, 0, 2, 0.00,60.00,Tuesday
31,9469604.825749658
831,9469604.825749658
1043,0.0
2,10, 1,10, 0, 3, 0.00,60.00,Tuesday
31,9469604.825749658
831,9469604.825749658
1043,0.0
2,10, 1,10, 0, 4, 0.00,60.00,Tuesday
31,9469604.825749658
831,9469604.825749658
1043,0.0
2,10, 1,10, 0, 5, 0.00,60.00,Tuesday
31,9469604.825749658
831,9469604.825749658
1043,0.0
2,10, 1,10, 0, 6, 0.00,60.00,Tuesday
31,9469604.825749658
831,9469604.825749658
1043,0.0
2,10, 1,10, 0, 7, 0.00,60.00,Tuesday
31,31455385.284787634
831,31455385.28478763
1043,5886565.669761715
2,10, 1,10, 0, 8, 0.00,60.00,Tuesday
31,36459729.541514609
831,36459729.54151459
1043,10199682.570221253
2,10, 1,10, 0, 9, 0.00,60.00,Tuesday
31,35839602.36014883
831,35839602.36014883
1043,0.0
2,10, 1,10, 0,10, 0.00,60.00,Tuesday
31,32016591.75073499
831,32016591.750734986
1043,0.0
2,10, 1,10, 0,11, 0.00,60.00,Tuesday
31,30923665.301252068
831,30923665.30125207
1043,0.0
2,10, 1,10, 0,12, 0.00,60.00,Tuesday
31,30498438.67113897
831,30498438.67113897
1043,0.0
2,10, 1,10, 0,13, 0.00,60.00,Tuesday
31,28153724.279800774
831,28153724.279800767
1043,0.0
2,10, 1,10, 0,14, 0.00,60.00,Tuesday
31,30970057.237945629
831,30970057.237945625
1043,0.0
2,10, 1,10, 0,15, 0.00,60.00,Tuesday
31,30690384.580482223
831,30690384.58048222
1043,0.0
2,10, 1,10, 0,16, 0.00,60.00,Tuesday
31,30781301.995598057
831,30781301.995598057
1043,0.0
2,10, 1,10, 0,17, 0.00,60.00,Tuesday
31,32147898.300565397
831,32147898.30056539
1043,0.0
2,10, 1,10, 0,18, 0.00,60.00,Tuesday
31,25036978.04701611
831,25036978.047016108
1043,0.0
2,10, 1,10, 0,19, 0.00,60.00,Tuesday
31,20466505.86861644
831,20466505.868616437
1043,0.0
2,10, 1,10, 0,20, 0.00,60.00,Tuesday
31,11853154.258345897
831,11853154.258345895
1043,0.0
2,10, 1,10, 0,21, 0.00,60.00,Tuesday
31,10637784.395628443
831,10637784.395628443
1043,0.0
2,10, 1,10, 0,22, 0.00,60.00,Tuesday
31,10637784.395628443
831,10637784.395628443
1043,0.0
2,10, 1,10, 0,23, 0.00,60.00,Tuesday
31,9543951.519120457
831,9543951.519120455
1043,0.0
2,10, 1,10, 0,24, 0.00,60.00,Tuesday
31,7197449.08321209
831,7197449.08321209
1043,0.0
2,11, 1,11, 0, 1, 0.00,60.00,Wednesday
31,9469604.825749658
831,9469604.825749658
1043,0.0
2,11, 1,11, 0, 2, 0.00,60.00,Wednesday
31,9469604.825749658
831,9469604.825749658
1043,0.0
2,11, 1,11, 0, 3, 0.00,60.00,Wednesday
31,9469604.825749658
831,9469604.825749658
1043,0.0
2,11, 1,11, 0, 4, 0.00,60.00,Wednesday
31,9469604.825749658
831,9469604.825749658
1043,0.0
2,11, 1,11, 0, 5, 0.00,60.00,Wednesday
31,9469604.825749658
831,9469604.825749658
1043,0.0
2,11, 1,11, 0, 6, 0.00,60.00,Wednesday
31,9469604.825749658
831,9469604.825749658
1043,0.0
2,11, 1,11, 0, 7, 0.00,60.00,Wednesday
31,25282012.12099332
831,25282012.120993318
1043,2159059.291176969
2,11, 1,11, 0, 8, 0.00,60.00,Wednesday
31,31145398.26647896
831,31145398.266478957
1043,0.0
2,11, 1,11, 0, 9, 0.00,60.00,Wednesday
31,32006703.200438598
831,32006703.200438598
1043,0.0
2,11, 1,11, 0,10, 0.00,60.00,Wednesday
31,29990117.547072136
831,29990117.547072136
1043,0.0
2,11, 1,11, 0,11, 0.00,60.00,Wednesday
31,30072581.233579514
831,30072581.23357951
1043,0.0
2,11, 1,11, 0,12, 0.00,60.00,Wednesday
31,30897485.712127437
831,30897485.712127437
1043,0.0
2,11, 1,11, 0,13, 0.00,60.00,Wednesday
31,28838835.55046742
831,28838835.55046741
1043,0.0
2,11, 1,11, 0,14, 0.00,60.00,Wednesday
31,31690246.40873906
831,31690246.408739065
1043,0.0
2,11, 1,11, 0,15, 0.00,60.00,Wednesday
31,32427740.160815445
831,32427740.160815449
1043,0.0
2,11, 1,11, 0,16, 0.00,60.00,Wednesday
31,32760966.93560785
831,32760966.935607859
1043,0.0
2,11, 1,11, 0,17, 0.00,60.00,Wednesday
31,33504600.24471434
831,33504600.244714336
1043,0.0
2,11, 1,11, 0,18, 0.00,60.00,Wednesday
31,23818955.948696965
831,23818955.94869696
1043,0.0
2,11, 1,11, 0,19, 0.00,60.00,Wednesday
31,17951528.951696978
831,17951528.951696978
1043,0.0
2,11, 1,11, 0,20, 0.00,60.00,Wednesday
31,11403154.258345897
831,11403154.258345895
1043,0.0
2,11, 1,11, 0,21, 0.00,60.00,Wednesday
31,10637784.395628443
831,10637784.395628443
1043,0.0
2,11, 1,11, 0,22, 0.00,60.00,Wednesday
31,10637784.395628443
831,10637784.395628443
1043,0.0
2,11, 1,11, 0,23, 0.00,60.00,Wednesday
31,9543951.519120457
831,9543951.519120455
1043,0.0
2,11, 1,11, 0,24, 0.00,60.00,Wednesday
31,7197449.08321209
831,7197449.08321209
1043,0.0
2,12, 1,12, 0, 1, 0.00,60.00,Thursday
31,9469604.825749658
831,9469604.825749658
1043,0.0
2,12, 1,12, 0, 2, 0.00,60.00,Thursday
31,9469604.825749658
831,9469604.825749658
1043,0.0
2,12, 1,12, 0, 3, 0.00,60.00,Thursday
31,9469604.825749658
831,9469604.825749658
1043,0.0
2,12, 1,12, 0, 4, 0.00,60.00,Thursday
31,9469604.825749658
831,9469604.825749658
1043,0.0
2,12, 1,12, 0, 5, 0.00,60.00,Thursday
31,9469604.825749658
831,9469604.825749658