Program Version,EnergyPlus, Version 8.6.0-198c6a3cff, YMD=2019.03.03 18:45
1,5,Environment Title[],Latitude[deg],Longitude[deg],Time Zone[],Elevation[m]
2,6,Day of Simulation[],Month[],Day of Month[],DST Indicator[1=yes 0=no],Hour[],StartMinute[],EndMinute[],DayType
3,3,Cumulative Day of Simulation[],Month[],Day of Month[],DST Indicator[1=yes 0=no],DayType  ! When Daily Report Variables Requested
4,2,Cumulative Days of Simulation[],Month[]  ! When Monthly Report Variables Requested
5,1,Cumulative Days of Simulation[] ! When Run Period Report Variables Requested
525,1,CORE_ZN,Zone Predicted Sensible Load to Setpoint Heat Transfer Rate [W] !Hourly
526,1,CORE_ZN,Zone Predicted Sensible Load to Heating Setpoint Heat Transfer Rate [W] !Hourly
527,1,CORE_ZN,Zone Predicted Sensible Load to Cooling Setpoint Heat Transfer Rate [W] !Hourly
562,1,PERIMETER_ZN_1,Zone Predicted Sensible Load to Setpoint Heat Transfer Rate [W] !Hourly
563,1,PERIMETER_ZN_1,Zone Predicted Sensible Load to Heating Setpoint Heat Transfer Rate [W] !Hourly
564,1,PERIMETER_ZN_1,Zone Predicted Sensible Load to Cooling Setpoint Heat Transfer Rate [W] !Hourly
599,1,PERIMETER_ZN_2,Zone Predicted Sensible Load to Setpoint Heat Transfer Rate [W] !Hourly
600,1,PERIMETER_ZN_2,Zone Predicted Sensible Load to Heating Setpoint Heat Transfer Rate [W] !Hourly
601,1,PERIMETER_ZN_2,Zone Predicted Sensible Load to Cooling Setpoint Heat Transfer Rate [W] !Hourly
636,1,PERIMETER_ZN_3,Zone Predicted Sensible Load to Setpoint Heat Transfer Rate [W] !Hourly
637,1,PERIMETER_ZN_3,Zone Predicted Sensible Load to Heating Setpoint Heat Transfer Rate [W] !Hourly
638,1,PERIMETER_ZN_3,Zone Predicted Sensible Load to Cooling Setpoint Heat Transfer Rate [W] !Hourly
673,1,PERIMETER_ZN_4,Zone Predicted Sensible Load to Setpoint Heat Transfer Rate [W] !Hourly
674,1,PERIMETER_ZN_4,Zone Predicted Sensible Load to Heating Setpoint Heat Transfer Rate [W] !Hourly
675,1,PERIMETER_ZN_4,Zone Predicted Sensible Load to Cooling Setpoint Heat Transfer Rate [W] !Hourly
710,1,ATTIC,Zone Predicted Sensible Load to Setpoint Heat Transfer Rate [W] !Hourly
711,1,ATTIC,Zone Predicted Sensible Load to Heating Setpoint Heat Transfer Rate [W] !Hourly
712,1,ATTIC,Zone Predicted Sensible Load to Cooling Setpoint Heat Transfer Rate [W] !Hourly
End of Data Dictionary
1,DENVER-AURORA-BUCKLEY.AFB_CO_USA ANN HTG 99.6% CONDNS DB,  40.13,-105.24,  -7.00,1689.00
2,1,12,21, 0, 1, 0.00,60.00,WinterDesignDay
525,1878.6483981567271
526,1861.61877857373
527,41972.71047449756
562,3571.4610554228598
563,3571.4610554228598
564,35525.55014104099
599,2227.4849399075356
600,2227.4849399075356
601,21434.92276873937
636,3613.3874297456555
637,3613.3874297456555
638,35655.40461948495
673,2229.2065080049956
674,2229.2065080049956
675,21436.578400400485
710,0.0
711,0.0
712,0.0
2,1,12,21, 0, 2, 0.00,60.00,WinterDesignDay
525,2016.3914162305182
526,1999.4710077311686
527,42175.35007099812
562,4455.934749239266
563,4455.934749239266
564,36867.154201733276
599,2763.063053536083
600,2763.063053536083
601,22243.39471240531
636,4485.75685022819
637,4485.75685022819
638,36943.197077384626
673,2763.5259064921593
674,2763.5259064921593
675,22243.895497881895
710,0.0
711,0.0
712,0.0
2,1,12,21, 0, 3, 0.00,60.00,WinterDesignDay
525,1448.4190117031203
526,1414.6232351834833
527,39250.435723889765
562,3437.444324080598
563,3437.444324080598
564,33955.40370143997
599,2144.716234481503
600,2144.716234481503
601,20500.37403891494
636,3480.0074419759235
637,3480.0074419759235
638,34085.96891434876
673,2145.7379224764495
674,2145.7379224764495
675,20501.406963087284
710,0.0
711,0.0
712,0.0
2,1,12,21, 0, 4, 0.00,60.00,WinterDesignDay
525,2013.3151151820064
526,1996.464147324307
527,42182.664439485154
562,4457.987502296409
563,4457.987502296409
564,36870.32559256561
599,2764.368863381629
600,2764.368863381629
601,22245.40292340034
636,4488.089261980895
637,4488.089261980895
638,36946.807847229706
673,2764.8064479574173
674,2764.8064479574173
675,22245.859699567936
710,0.0
711,0.0
712,0.0
2,1,12,21, 0, 5, 0.00,60.00,WinterDesignDay
525,1444.6891248020208
526,1411.1038399976114
527,39258.050157426194
562,3438.688171125685
563,3438.688171125685
564,33957.20737192656
599,2145.553778080052
600,2145.553778080052
601,20501.584591652285
636,3481.451298128794
637,3481.451298128794
638,34088.075367905236
673,2146.5678760106757
674,2146.5678760106757
675,20502.602658025222
710,0.0
711,0.0
712,0.0
2,1,12,21, 0, 6, 0.00,60.00,WinterDesignDay
525,2006.4288984484267
526,1989.6980609552668
527,42182.3632615881
562,4459.21607583909
563,4459.21607583909
564,36872.190188342
599,2765.2159819966387
600,2765.2159819966387
601,22246.69460006894
636,4489.52123431634
637,4489.52123431634
638,36948.99991666653
673,2765.648822216306
674,2765.648822216306
675,22247.14329083904
710,0.0
711,0.0
712,0.0
2,1,12,21, 0, 7, 0.00,60.00,WinterDesignDay
525,1439.6744727994326
526,1406.340444024375
527,39262.70683435719
562,3439.4935211387005
563,3439.4935211387005
564,33958.34749307564
599,2146.1235161319896
600,2146.1235161319896
601,20502.400324561673
636,3482.405331940263
637,3482.405331940263
638,34089.45014518854
673,2147.1363683571676
674,2147.1363683571676
675,20503.415654596443
710,0.0
711,0.0
712,0.0
2,1,12,21, 0, 8, 0.00,60.00,WinterDesignDay
525,1889.5747970114505
526,1889.5747970114505
527,38278.36795879218
562,3824.7126380849973
563,3819.6958336382995
564,33161.27382420399
599,2361.759965333725
600,2361.759965333725
601,20034.39066602061
636,3867.642562880025
637,3865.018935762409
638,33294.17014846943
673,2361.9798226618473
674,2361.9798226618473
675,20034.750397259573
710,0.0
711,0.0
712,0.0
2,1,12,21, 0, 9, 0.00,60.00,WinterDesignDay
525,1575.1127467151757
526,1575.1127467151757
527,37528.63546477212
562,3294.5195815783936
563,3284.911337595386
564,32032.935553178297
599,2044.9753912639433
600,2044.9753912639433
601,19381.949216551922
636,3365.8741719618156
637,3361.2341849348227
638,32282.082802109053
673,2045.5184855470925
674,2045.5184855470925
675,19382.756400681865
710,0.0
711,0.0
712,0.0
2,1,12,21, 0,10, 0.00,60.00,WinterDesignDay
525,1903.0283513404393
526,1903.0283513404393
527,38278.733618664
562,3785.3430869786353
563,3780.660870028305
564,33110.216138631346
599,2336.009655024075
600,2336.009655024075
601,20000.88240119911
636,3826.204842201502
637,3824.0380955606656
638,33241.720249127226
673,2336.2908719379416
674,2336.2908719379416
675,20001.317950052446
710,0.0
711,0.0
712,0.0
2,1,12,21, 0,11, 0.00,60.00,WinterDesignDay
525,1590.3390827973435
526,1590.3390827973435
527,37526.64454472558
562,3288.583543550046
563,3279.3591379215445
564,32023.004010214518
599,2040.3076682751841
600,2040.3076682751841
601,19374.276407450496
636,3359.0727686341743
637,3354.8946371457696
638,32271.31253775603
673,2040.8490095325014
674,2040.8490095325014
675,19375.087936093736
710,0.0
711,0.0
712,0.0
2,1,12,21, 0,12, 0.00,60.00,WinterDesignDay
525,1923.1163498315939
526,1923.1163498315939
527,38291.710622511026
562,3782.092826738721
563,3777.5321091338633
564,33105.286334994154
599,2333.3586474554345
600,2333.3586474554345
601,19996.645103316234
636,3822.1843553425656
637,3820.1487619810305
638,33235.39548991531
673,2333.643332100224
674,2333.643332100224
675,19997.087222388658
710,0.0
711,0.0
712,0.0
2,1,12,21, 0,13, 0.00,60.00,WinterDesignDay
525,1622.054647424604
526,1622.054647424604
527,37538.556259862955
562,3286.979395270518
563,3277.9345247230326
564,32021.424535714254
599,2038.7767749346128
600,2038.7767749346128
601,19372.15856114712
636,3356.7942305934444
637,3352.798060890414
638,32268.23461055182
673,2039.317397142636
674,2039.317397142636
675,19372.97025129783
710,0.0
711,0.0
712,0.0
2,1,12,21, 0,14, 0.00,60.00,WinterDesignDay
525,1944.6361116493542
526,1944.6361116493542
527,38307.44293917565
562,3780.685494497118
563,3776.1947931321242
564,33103.49612944545
599,2332.1114119414497
600,2332.1114119414497
601,19994.774311967616
636,3820.270250134807
637,3818.302393602551
638,33232.53795596898
673,2332.397755265429
674,2332.397755265429
675,19995.219268602035
710,0.0
711,0.0
712,0.0
2,1,12,21, 0,15, 0.00,60.00,WinterDesignDay
525,1611.204600049121
526,1611.204600049121
527,37528.71142841564
562,3286.1776775705325
563,3277.2493197678814
564,32021.033803592156
599,2037.914347353815
600,2037.914347353815
601,19371.083948193365
636,3355.4932323233766
637,3351.6075914311537
638,32266.62285526197
673,2038.454643038065
674,2038.454643038065
675,19371.895556023614
710,0.0
711,0.0
712,0.0
2,1,12,21, 0,16, 0.00,60.00,WinterDesignDay
525,1924.7901927658422
526,1924.7901927658422
527,38294.775201766955
562,3779.678534552711
563,3775.2386044877767
564,33102.25169937366
599,2331.241540376686
600,2331.241540376686
601,19993.490077450257
636,3818.9038887391575
637,3816.9843293235317
638,33230.52122752625
673,2331.528986425727
674,2331.528986425727
675,19993.936880900354
710,0.0
711,0.0
712,0.0
2,1,12,21, 0,17, 0.00,60.00,WinterDesignDay
525,1618.2281501269638
526,1618.2281501269638
527,37538.87881741735
562,3285.504279116176
563,3276.666240888218
564,32020.61977167119
599,2037.2537669084895
600,2037.2537669084895
601,19370.264462878473
636,3354.4659056421992
637,3350.666779730404
638,32265.352087349867
673,2037.7937261342313
674,2037.7937261342313
675,19371.075858469183
710,0.0
711,0.0
712,0.0
2,1,12,21, 0,18, 0.00,60.00,WinterDesignDay
525,1917.6758251529307
526,1917.6758251529307
527,38290.615862905135
562,3778.916465708291
563,3774.5150058809086
564,33101.30505121484
599,2330.593198280451
600,2330.593198280451
601,19992.5325076126
636,3817.8787596730313
637,3815.9955627480686
638,33229.00488843416
673,2330.8814436023663
674,2330.8814436023663
675,19992.980646087057
710,0.0
711,0.0
712,0.0
2,1,12,21, 0,19, 0.00,60.00,WinterDesignDay
525,1588.2450787343578
526,1570.8203554503868
527,39398.095580493406
562,3606.1161184062134
563,3605.469664975066
564,33974.89401947495
599,2245.31853238572
600,2245.31853238572
601,20528.46301991513
636,3659.005371594188
637,3659.005371594188
638,34156.99785165674
673,2246.1735837091346
674,2246.1735837091346
675,20529.458775979558
710,0.0
711,0.0
712,0.0
2,1,12,21, 0,20, 0.00,60.00,WinterDesignDay
525,2043.215191309757
526,2025.9808617626838
527,42209.51952805678
562,4445.3617939227615
563,4445.3617939227615
564,36849.95175182619
599,2754.350387839724
600,2754.350387839724
601,22229.25370165921
636,4472.937285077669
637,4472.937285077669
638,36922.455400030805
673,2754.8002874178965
674,2754.8002874178965
675,22229.735329568593
710,0.0
711,0.0
712,0.0
2,1,12,21, 0,21, 0.00,60.00,WinterDesignDay
525,1470.163430290362
526,1435.6321812723124
527,39267.44092471392
562,3432.616285980137
563,3432.616285980137
564,33947.85405834381
599,2140.538038093902
600,2140.538038093902
601,20493.819063864168
636,3473.845935969069
637,3473.845935969069
638,34076.32803654273
673,2141.5487013804914
674,2141.5487013804914
675,20494.839057015088
710,0.0
711,0.0
712,0.0
2,1,12,21, 0,22, 0.00,60.00,WinterDesignDay
525,2035.3999057640565
526,2018.2987710216319
527,42210.19367053339
562,4454.146051014907
563,4454.146051014907
564,36864.464030292795
599,2760.972395971628
600,2760.972395971628
601,22240.163844105122
636,4483.025897130195
637,4483.025897130195
638,36938.99118589147
673,2761.4096290401435
674,2761.4096290401435
675,22240.62109735688
710,0.0
711,0.0
712,0.0
2,1,12,21, 0,23, 0.00,60.00,WinterDesignDay
525,1454.971170379985
526,1420.9788433042097
527,39268.79822770859
562,3436.4018832116726
563,3436.4018832116726
564,33953.992457116234
599,2143.460919987443
600,2143.460919987443
601,20498.553942250302
636,3478.3154265671205
637,3478.3154265671205
638,34083.51816009981
673,2144.4717748302305
674,2144.4717748302305
675,20499.569390211458
710,0.0
711,0.0
712,0.0
2,1,12,21, 0,24, 0.00,60.00,WinterDesignDay
525,2019.6074705778658
526,2002.729188184907
527,42200.51093594958
562,4456.89525409753
563,4456.89525409753
564,36868.74202796038
599,2763.1134659778054
600,2763.1134659778054
601,22243.516488682613
636,4486.354120388235
637,4486.354120388235
638,36944.19452888989
673,2763.547232205592
674,2763.547232205592
675,22243.967366637375
710,0.0
711,0.0
712,0.0
1,DENVER-AURORA-BUCKLEY.AFB_CO_USA ANN CLG .4% CONDNS DB=>MWB,  40.13,-105.24,  -7.00,1689.00
2,1, 7,21, 0, 1, 0.00,60.00,SummerDesignDay
525,-4382.779772883589
526,-43966.56661943187
527,-4382.779772883589
562,-3164.0940206506843
563,-33737.392759133894
564,-3164.0940206506843
599,-1785.7939039010641
600,-20133.057645323774
601,-1785.7939039010641
636,-3176.1633715879198
637,-33719.216644862114
638,-3176.1633715879198
673,-1892.5835211025708
674,-20391.448163802044
675,-1885.4606924628163
710,0.0
711,0.0
712,0.0
2,1, 7,21, 0, 2, 0.00,60.00,SummerDesignDay
525,-4136.367449131049
526,-38034.98758002022
527,-4136.367449131049
562,-2922.0841432681395
563,-29141.482566575036
564,-2922.0841432681395
599,-1763.0225284154787
600,-17514.444032462994
601,-1763.0225284154787
636,-2904.6347679843834
637,-29096.87502499889
638,-2904.6347679843834
673,-1876.0113609547104
674,-17756.968733306912
675,-1876.0113609547104
710,0.0
711,0.0
712,0.0
2,1, 7,21, 0, 3, 0.00,60.00,SummerDesignDay
525,-3471.699228596776
526,-35523.769289052936
527,-3471.699228596776
562,-2294.6906839144053
563,-27073.098028133874
564,-2294.6906839144053
599,-1370.6040899362333
600,-16256.398392485513
601,-1370.6040899362333
636,-2299.248152368054
637,-27061.21394340986
638,-2299.248152368054
673,-1440.982733486452
674,-16402.406407325485
675,-1440.982733486452
710,0.0
711,0.0
712,0.0
2,1, 7,21, 0, 4, 0.00,60.00,SummerDesignDay
525,-4146.810793787417
526,-37991.45596146548
527,-4146.810793787417
562,-2812.3636652220957
563,-28899.158995772577
564,-2812.3636652220957
599,-1686.405504432689
600,-17347.715928026646
601,-1686.405504432689
636,-2800.1181112353247
637,-28861.543760219985
638,-2800.1181112353247
673,-1761.2205061544948
674,-17522.931920738953
675,-1761.2205061544948
710,0.0
711,0.0
712,0.0
2,1, 7,21, 0, 5, 0.00,60.00,SummerDesignDay
525,-3433.9446166312537
526,-35452.707040427864
527,-3433.9446166312537
562,-2187.349198855876
563,-26873.962206811866
564,-2187.349198855876
599,-1311.9019505251188
600,-16130.486122035785
601,-1311.9019505251188
636,-2196.1812048706884
637,-26867.027663093042
638,-2196.1812048706884
673,-1357.8677957321183
674,-16239.395244828554
675,-1357.8677957321183
710,0.0
711,0.0
712,0.0
2,1, 7,21, 0, 6, 0.00,60.00,SummerDesignDay
525,-4547.183044361805
526,-43998.93400473377
527,-4547.183044361805
562,-3077.169572960592
563,-33354.10549567286
564,-3077.169572960592
599,-2275.8237982198752
600,-20747.534030015897
601,-2275.8237982198752
636,-3176.8656746008364
637,-33555.30459825094
638,-3176.8656746008364
673,-1891.4409220767393
674,-20104.57525627871
675,-1891.4409220767393
710,0.0
711,0.0
712,0.0
2,1, 7,21, 0, 7, 0.00,60.00,SummerDesignDay
525,-2838.0593692751936
526,-55580.29642520894
527,-2838.0593692751936
562,-1937.2557295085765
563,-42383.55609824014
564,-1937.2557295085765
599,-1965.6107584015929
600,-27085.3670570852
601,-1965.6107584015929
636,-1986.3519413828933
637,-42536.58909020821
638,-1986.3519413828933
673,-1159.458792077444
674,-25368.910549845703
675,-1159.458792077444
710,0.0
711,0.0
712,0.0
2,1, 7,21, 0, 8, 0.00,60.00,SummerDesignDay
525,-2480.314412768093
526,-72035.74771344467
527,-2480.314412768093
562,-1878.8112813484813
563,-55198.20979447467
564,-1878.8112813484813
599,-2388.9643021119587
600,-35709.62376847817
601,-2388.9643021119587
636,-1881.9340743952298
637,-55230.90592274647
638,-1881.9340743952298
673,-1137.6978524488165
674,-32960.06892835983
675,-1137.6978524488165
710,0.0
711,0.0
712,0.0
2,1, 7,21, 0, 9, 0.00,60.00,SummerDesignDay
525,-2516.850664676906
526,-75902.21480442751
527,-2516.850664676906
562,-2010.3604365142237
563,-58427.59359592181
564,-2010.3604365142237
599,-2645.366580048378
600,-37893.05452741715
601,-2645.366580048378
636,-2025.0200885378233
637,-58469.15309745908
638,-2025.0200885378233
673,-1207.4428497527658
674,-34853.678019415915
675,-1207.4428497527658
710,0.0
711,0.0
712,0.0
2,1, 7,21, 0,10, 0.00,60.00,SummerDesignDay
525,-2592.687970369388
526,-68613.67451116527
527,-2592.687970369388
562,-2183.366494654791
563,-53198.485557200824
564,-2183.366494654791
599,-2518.9988794265223
600,-34349.43102604809
601,-2518.9988794265223
636,-2199.0866030070533
637,-53237.97793518738
638,-2199.0866030070533
673,-1307.9029777904145
674,-31742.88521955637
675,-1307.9029777904145
710,0.0
711,0.0
712,0.0
2,1, 7,21, 0,11, 0.00,60.00,SummerDesignDay
525,-2674.2046334868755
526,-55693.00257797746
527,-2674.2046334868755
562,-2409.0352078689393
563,-43793.24000882435
564,-2409.0352078689393
599,-2121.0756471032473
600,-27722.888459548438
601,-2121.0756471032473
636,-2354.2702714669012
637,-43653.6850748292
638,-2354.2702714669012
673,-1411.9527388598478
674,-26092.53740873215
675,-1411.9527388598478
710,0.0
711,0.0
712,0.0
2,1, 7,21, 0,12, 0.00,60.00,SummerDesignDay
525,-2746.9867624407157
526,-42743.07695067625
527,-2746.9867624407157
562,-2658.718615671973
563,-34413.22486033931
564,-2658.718615671973
599,-1910.8975377365568
600,-21342.988373733733
601,-1910.8975377365568
636,-2491.1213664839656
637,-34005.40175497613
638,-2491.1213664839656
673,-1507.3260074474365
674,-20407.105804073148
675,-1507.3260074474365
710,0.0
711,0.0
712,0.0
2,1, 7,21, 0,13, 0.00,60.00,SummerDesignDay
525,-2808.8854255643782
526,-29759.660848501477
527,-2808.8854255643782
562,-2842.9772863689454
563,-24855.13900026257
564,-2842.9772863689454
599,-1870.9761617311324
600,-15326.206141401553
601,-1870.9761617311324
636,-2607.205557780517
637,-24297.61106865951
638,-2607.205557780517
673,-1571.7173181449823
674,-14647.115078646872
675,-1571.7173181449823
710,0.0
711,0.0
712,0.0
2,1, 7,21, 0,14, 0.00,60.00,SummerDesignDay
525,-2857.263962484149
526,-22373.170840633815
527,-2857.263962484149
562,-2917.5297148668956
563,-19319.478274454603
564,-2917.5297148668956
599,-1855.0631433109327
600,-11906.226880958411
601,-1855.0631433109327
636,-2696.297496012298
637,-18800.770113440496
638,-2696.297496012298
673,-1715.2445296446501
674,-11557.953639555068
675,-1715.2445296446501
710,0.0
711,0.0
712,0.0
2,1, 7,21, 0,15, 0.00,60.00,SummerDesignDay
525,-2894.1028942957237
526,-29993.96509981882
527,-2894.1028942957237
562,-2914.923743356332
563,-25009.59345961334
564,-2914.923743356332
599,-1836.8749934599382
600,-15250.06521948761
601,-1836.8749934599382
636,-2750.8190498430718
637,-24633.013933460457
638,-2750.8190498430718
673,-2221.0223686768168
674,-15917.179285415259
675,-2221.0223686768168
710,0.0
711,0.0
712,0.0
2,1, 7,21, 0,16, 0.00,60.00,SummerDesignDay
525,-2910.2407682251746
526,-41328.075743950576
527,-2910.2407682251746
562,-2879.194928847166
563,-33494.02946393757
564,-2879.194928847166
599,-1797.3414749313868
600,-20244.756344416117
601,-1797.3414749313868
636,-2736.62509323061
637,-33180.479493432875
638,-2736.62509323061
673,-2784.7758961934655
674,-22010.91238286841
675,-2784.7758961934655
710,0.0
711,0.0
712,0.0
2,1, 7,21, 0,17, 0.00,60.00,SummerDesignDay
525,-2892.255290062351
526,-54464.90822012373
527,-2892.255290062351
562,-2802.9315562792763
563,-43319.08039443041
564,-2802.9315562792763
599,-1743.9436560572592
600,-26054.992828529324
601,-1743.9436560572592
636,-2676.898992522798
637,-43041.397734151666
638,-2676.898992522798
673,-3050.669125547256
674,-28411.739175863953
675,-3050.669125547256
710,0.0
711,0.0
712,0.0
2,1, 7,21, 0,18, 0.00,60.00,SummerDesignDay
525,-2860.6629892125798
526,-63782.44277491056
527,-2860.6629892125798
562,-2703.618367233162
563,-50236.52078487348
564,-2703.618367233162
599,-1651.7960307666415
600,-30090.814295575143
601,-1651.7960307666415
636,-2606.129677938984
637,-50018.1023298626
638,-2606.129677938984
673,-2979.8301022969704
674,-32562.67393992
675,-2979.8301022969704
710,0.0
711,0.0
712,0.0
2,1, 7,21, 0,19, 0.00,60.00,SummerDesignDay
525,-2808.2079944496486
526,-67404.20729541632
527,-2808.2079944496486
562,-2536.7042783739307
563,-52716.12608726971
564,-2536.7042783739307
599,-1544.5142895048502
600,-31539.08817904659
601,-1544.5142895048502
636,-2536.222983640641
637,-52731.71244459768
638,-2536.222983640641
673,-2552.072521228758
674,-33566.200652883366
675,-2552.072521228758
710,0.0
711,0.0
712,0.0
2,1, 7,21, 0,20, 0.00,60.00,SummerDesignDay
525,-5126.115224499218
526,-73211.78192045464
527,-5126.115224499218
562,-4110.489293604082
563,-56710.55630790168
564,-4110.489293604082
599,-2410.5846353635593
600,-33842.98587168447
601,-2410.5846353635593
636,-4154.111328270887
637,-56764.17285732273
638,-4154.111328270887
673,-3006.7143872131874
674,-34989.658208601635
675,-3006.7143872131874
710,0.0
711,0.0
712,0.0
2,1, 7,21, 0,21, 0.00,60.00,SummerDesignDay
525,-5353.989274803892
526,-58337.85480462521
527,-5353.989274803892
562,-4233.80883717509
563,-45279.192737795536
564,-4233.80883717509
599,-2527.4175249065547
600,-27109.37225118124
601,-2527.4175249065547
636,-4230.054125770473
637,-45269.475717255926
638,-4230.054125770473
673,-3047.1089212795655
674,-27990.742361295896
675,-3047.1089212795655
710,0.0
711,0.0
712,0.0
2,1, 7,21, 0,22, 0.00,60.00,SummerDesignDay
525,-4474.316372082652
526,-47990.78938849657
527,-4474.316372082652
562,-3345.476932044517
563,-37055.30548979455
564,-3345.476932044517
599,-1943.6722644350666
600,-22159.661704829636
601,-1943.6722644350666
636,-3345.81176908329
637,-37049.340184679815
638,-3345.81176908329
673,-2216.1051900438056
674,-22588.00502664474
675,-2216.1051900438056
710,0.0
711,0.0
712,0.0
2,1, 7,21, 0,23, 0.00,60.00,SummerDesignDay
525,-4771.739061256708
526,-44496.00338602978
527,-4771.739061256708
562,-3559.253297360249
563,-34369.064469091485
564,-3559.253297360249
599,-2115.237527072319
600,-20617.776651506687
601,-2115.237527072319
636,-3543.509001077438
637,-34331.346270137634
638,-3543.509001077438
673,-2359.6966552421686
674,-21084.240666237143
675,-2359.6966552421686
710,0.0
711,0.0
712,0.0
2,1, 7,21, 0,24, 0.00,60.00,SummerDesignDay
525,-5329.429522150561
526,-48736.202209276125
527,-5329.429522150561
562,-3447.3700721626537
563,-36940.24637080829
564,-3447.3700721626537
599,-1968.0097296946763
600,-22049.519341287658
601,-1968.0097296946763
636,-3466.929431842995
637,-36945.29664079729
638,-3466.929431842995
673,-2104.3246626065943
674,-22312.727842158198
675,-2104.3246626065943
710,0.0
711,0.0
712,0.0
1,Broomfield Jeffco  Boulder   S CO USA TMY3 WMO#=724699,  40.13,-105.24,  -7.00,1689.00
2,1, 1, 1, 0, 1, 0.00,60.00,Holiday
525,0.0
526,-11819.005871145991
527,27189.17563795624
562,0.0
563,-6710.092220578747
564,24615.97774916101
599,0.0
600,-2634.509925911002
601,16223.166552548211
636,0.0
637,-3605.322918326197
638,28075.297010798997
673,0.0
674,-2568.304213460122
675,16251.528322329848
710,0.0
711,0.0
712,0.0
2,1, 1, 1, 0, 2, 0.00,60.00,Holiday
525,0.0
526,-13591.37177853314
527,34331.71083572061
562,0.0
563,-7578.064855690395
564,31314.236204106666
599,0.0
600,-2969.8615841939522
601,20552.924463874184
636,0.0
637,-4055.6956350282417
638,35502.07115056326
673,0.0
674,-2893.3370411401593
675,20620.080203626374
710,0.0
711,0.0
712,0.0
2,1, 1, 1, 0, 3, 0.00,60.00,Holiday
525,0.0
526,-9622.266171055746
527,25533.143133034395
562,0.0
563,-5269.291959626425
564,23973.156496403917
599,0.0
600,-2063.9260144597547
601,15657.717285225333
636,0.0
637,-2820.7840463622524
638,26940.692246161052
673,0.0
674,-2009.8249268588286
675,15706.298658730746
710,0.0
711,0.0
712,0.0
2,1, 1, 1, 0, 4, 0.00,60.00,Holiday
525,0.0
526,-7604.83593475517
527,21190.1325849611
562,0.0
563,-4032.2418042070717
564,20407.982643225525
599,0.0
600,-1576.5387507237472
601,13261.295519294288
636,0.0
637,-2156.9802291616816
638,22738.983732743898
673,0.0
674,-1533.9505296821044
675,13301.233314719097
710,0.0
711,0.0
712,0.0
2,1, 1, 1, 0, 5, 0.00,60.00,Holiday
525,0.0
526,-7405.958231639967
527,21504.759525774953
562,0.0
563,-3654.862865539752
564,20886.635261896474
599,0.0
600,-1405.9810824305932
601,13521.170293348763
636,0.0
637,-1923.98993215072
638,23109.630031891895
673,0.0
674,-1366.0956065632508
675,13559.966634565108
710,0.0
711,0.0
712,0.0
2,1, 1, 1, 0, 6, 0.00,60.00,Holiday
525,0.0
526,-7226.708488061879
527,21805.233393844752
562,0.0
563,-3290.7670830646657
564,21369.5218142736
599,0.0
600,-1240.036856572425
601,13818.604740932598
636,0.0
637,-1697.3274137952492
638,23518.6773607745
673,0.0
674,-1203.8128408400273
675,13853.302365478072
710,0.0
711,0.0
712,0.0
2,1, 1, 1, 0, 7, 0.00,60.00,Holiday
525,0.0
526,-7068.102118477568
527,22095.145259877765
562,0.0
563,-2989.5877223248285
564,21712.01393401685
599,0.0
600,-1103.4752232438623
601,13972.581595588867
636,0.0
637,-1517.9249422583089
638,23724.86452783141
673,0.0
674,-1072.4602543676708
675,13999.448188791692
710,0.0
711,0.0
712,0.0
2,1, 1, 1, 0, 8, 0.00,60.00,Holiday
525,0.0
526,-7695.611028059699
527,24831.13911853598
562,0.0
563,-3248.560380748115
564,24100.359003567606
599,0.0
600,-1319.321790307318
601,15279.607946678747
636,0.0
637,-1525.4491147368888
638,26249.418252319625
673,0.0
674,-1065.7542411415209
675,15513.94079457124
710,0.0
711,0.0
712,0.0
2,1, 1, 1, 0, 9, 0.00,60.00,Holiday
525,0.0
526,-17770.644690227717
527,57033.99978876967
562,0.0
563,-10163.592475915597
564,49167.92401064239
599,0.0
600,-4947.817517616458
601,30343.174934909795
636,0.0
637,-3742.360677268598
638,56142.98716532075
673,0.0
674,-2525.1570796156184
675,33077.64260047807
710,0.0
711,0.0
712,0.0
2,1, 1, 1, 0,10, 0.00,60.00,Holiday
525,0.0
526,-25941.89874143791
527,77975.12124358097
562,0.0
563,-21868.0853901466
564,59587.41001734987
599,0.0
600,-9764.506402356703
601,38793.06096026251
636,0.0
637,-6274.117424818287
638,75416.55409094585
673,0.0
674,-4204.185626425665
675,44357.547518411295
710,0.0
711,0.0
712,0.0
2,1, 1, 1, 0,11, 0.00,60.00,Holiday
525,0.0
526,-31199.31890444945
527,77077.12344157405
562,0.0
563,-32788.52955858849
564,52480.2527242329
599,0.0
600,-10932.562321020212
601,38534.42112439544
636,0.0
637,-7964.907113928009
638,75146.06443063135
673,0.0
674,-5550.904091064386
675,44008.06103559114
710,0.0
711,0.0
712,0.0
2,1, 1, 1, 0,12, 0.00,60.00,Holiday
525,0.0
526,-26273.110407668806
527,59386.48972941004
562,0.0
563,-32306.60620058955
564,35399.568511281854
599,0.0
600,-8429.549538943049
601,30256.978876886114
636,0.0
637,-7567.286666857909
638,57727.3246474596
673,0.0
674,-5522.459690516972
675,34021.33626871501
710,0.0
711,0.0
712,0.0
2,1, 1, 1, 0,13, 0.00,60.00,Holiday
525,0.0
526,-19546.274410980404
527,40550.50580383821
562,0.0
563,-26102.252015003138
564,21346.750632549887
599,0.0
600,-6238.251372779031
601,20849.47476207967
636,0.0
637,-6162.732361022732
638,39491.416138657085
673,0.0
674,-4597.240629454046
675,23221.798346481257
710,0.0
711,0.0
712,0.0
2,1, 1, 1, 0,14, 0.00,60.00,Holiday
525,0.0
526,-12936.122873088927
527,24723.723106910347
562,0.0
563,-15899.462656354191
564,12588.649556183453
599,0.0
600,-4150.930222054689
601,12764.537852411317
636,0.0
637,-4393.836997760335
638,23906.352503438156
673,0.0
674,-3520.620378542746
675,13977.53994187642
710,0.0
711,0.0
712,0.0
2,1, 1, 1, 0,15, 0.00,60.00,Holiday
525,0.0
526,-20171.045542990953
527,36765.739440536454
562,0.0
563,-21356.85465966728
564,19837.929128791202
599,0.0
600,-6277.90037379089
601,19152.005490617023
636,0.0
637,-7142.930544009759
638,35883.30418584278
673,0.0
674,-6063.476256721368
675,19954.790006375188
710,0.0
711,0.0
712,0.0
2,1, 1, 1, 0,16, 0.00,60.00,Holiday
525,0.0
526,-28499.00652834606
527,50759.53494611173
562,0.0
563,-26918.974124731147
564,30411.284942261278
599,0.0
600,-8430.229481106771
601,26799.482055200566
636,0.0
637,-10108.50073737946
638,49870.05376678428
673,0.0
674,-8742.588432372473
675,26983.609850641024
710,0.0
711,0.0
712,0.0
2,1, 1, 1, 0,17, 0.00,60.00,Holiday
525,0.0
526,-29619.5033854911
527,52592.57713830128
562,0.0
563,-24829.612296685187
564,33756.87143887871
599,0.0
600,-8491.818231992409
601,28294.81240802443
636,0.0
637,-10517.121425960462
638,51985.9164358129
673,0.0
674,-9038.033329042106
675,27968.963497660927
710,0.0
711,0.0
712,0.0
2,1, 1, 1, 0,18, 0.00,60.00,Holiday
525,0.0
526,-26971.119641229718
527,48670.46853114025
562,0.0
563,-20340.229676928266
564,34366.92530785164
599,0.0
600,-7264.144045317237
601,26339.174108879753
636,0.0
637,-9224.856013247032
638,48096.97177264021
673,0.0
674,-7513.769943169038
675,26380.396817146084
710,0.0
711,0.0
712,0.0
2,1, 1, 1, 0,19, 0.00,60.00,Holiday
525,0.0
526,-18665.250719567342
527,34667.891419994514
562,0.0
563,-12917.737228144919
564,25245.599616815318
599,0.0
600,-4792.2397288125785
601,18668.064076926396
636,0.0
637,-6182.615354422634
638,33744.10109500752
673,0.0
674,-4932.08410169401
675,18894.12545033575
710,0.0
711,0.0
712,0.0
2,1, 1, 1, 0,20, 0.00,60.00,Holiday
525,0.0
526,-13912.616257485783
527,26569.54968554398
562,0.0
563,-9232.904868154574
564,20305.083236766666
599,0.0
600,-3478.4588868660107
601,14534.222017842772
636,0.0
637,-4481.157189370732
638,25709.99672476528
673,0.0
674,-3490.689925179968
675,14525.015014045968
710,0.0
711,0.0
712,0.0
2,1, 1, 1, 0,21, 0.00,60.00,Holiday
525,0.0
526,-10404.865540901917
527,20420.726716956742
562,0.0
563,-6569.17003528513
564,16407.55738743895
599,0.0
600,-2515.145122560268
601,11477.933924827486
636,0.0
637,-3229.3845505903155
638,19924.426597772563
673,0.0
674,-2433.121630159862
675,11195.643730935395
710,0.0
711,0.0
712,0.0
2,1, 1, 1, 0,22, 0.00,60.00,Holiday
525,0.0
526,-10238.942815930879
527,20539.83655845764
562,0.0
563,-6233.375656268516
564,17013.883226835085
599,0.0
600,-2400.102923457747
601,11570.236065653857
636,0.0
637,-3093.9944521358634
638,19770.96357733414
673,0.0
674,-2321.587482001631
675,11368.55463237719
710,0.0
711,0.0
712,0.0
2,1, 1, 1, 0,23, 0.00,60.00,Holiday
525,0.0
526,-10104.956576189987
527,20645.082504179245
562,0.0
563,-5843.158821297817
564,17759.6760585067
599,0.0
600,-2272.1937804343443
601,11979.58970541104
636,0.0
637,-3011.2593493006098
638,20699.377787253678
673,0.0
674,-2216.3915843466366
675,11924.114861520871
710,0.0
711,0.0
712,0.0