Program Version,EnergyPlus, Version 8.6.0-198c6a3cff, YMD=2019.03.03 19:14
1,5,Environment Title[],Latitude[deg],Longitude[deg],Time Zone[],Elevation[m]
2,6,Day of Simulation[],Month[],Day of Month[],DST Indicator[1=yes 0=no],Hour[],StartMinute[],EndMinute[],DayType
3,3,Cumulative Day of Simulation[],Month[],Day of Month[],DST Indicator[1=yes 0=no],DayType  ! When Daily Meters Requested
4,2,Cumulative Days of Simulation[],Month[]  ! When Monthly Meters Requested
5,1,Cumulative Days of Simulation[] ! When Run Period Meters Requested
31,1,Electricity:Facility [J] !Hourly
831,1,ElectricityNet:Facility [J] !Hourly
1043,1,Gas:Facility [J] !Hourly
End of Data Dictionary
1,TUCSON-DAVIS-MONTHAN.AFB_AZ_USA ANN HTG 99.6% CONDNS DB,  33.45,-111.98,  -7.00, 337.00
2,1,12,21, 0, 1, 0.00,60.00,WinterDesignDay
31,16786082.833679696
831,16786082.833679696
1043,5040199.147087852
2,1,12,21, 0, 2, 0.00,60.00,WinterDesignDay
31,15634860.360440586
831,15634860.360440586
1043,2575266.9623107959
2,1,12,21, 0, 3, 0.00,60.00,WinterDesignDay
31,16427002.746243582
831,16427002.746243582
1043,5144578.789197559
2,1,12,21, 0, 4, 0.00,60.00,WinterDesignDay
31,15692507.69500349
831,15692507.695003488
1043,2568503.8472653545
2,1,12,21, 0, 5, 0.00,60.00,WinterDesignDay
31,16463739.897106635
831,16463739.897106637
1043,5128746.700007928
2,1,12,21, 0, 6, 0.00,60.00,WinterDesignDay
31,15693545.855599322
831,15693545.85559932
1043,2560148.6874364304
2,1,12,21, 0, 7, 0.00,60.00,WinterDesignDay
31,17655128.662218438
831,17655128.662218438
1043,5111916.486890113
2,1,12,21, 0, 8, 0.00,60.00,WinterDesignDay
31,15145921.395525303
831,15145921.3955253
1043,2471645.6111206046
2,1,12,21, 0, 9, 0.00,60.00,WinterDesignDay
31,16098699.904120179
831,16098699.904120179
1043,2366181.833840117
2,1,12,21, 0,10, 0.00,60.00,WinterDesignDay
31,16083012.640073482
831,16083012.64007348
1043,2383327.8268550175
2,1,12,21, 0,11, 0.00,60.00,WinterDesignDay
31,17983612.3647203
831,17983612.3647203
1043,2505501.998527296
2,1,12,21, 0,12, 0.00,60.00,WinterDesignDay
31,17397510.81320314
831,17397510.81320314
1043,555538.9055366934
2,1,12,21, 0,13, 0.00,60.00,WinterDesignDay
31,18117492.5520595
831,18117492.5520595
1043,2516486.2990447727
2,1,12,21, 0,14, 0.00,60.00,WinterDesignDay
31,15993444.531838673
831,15993444.531838673
1043,2670187.006885701
2,1,12,21, 0,15, 0.00,60.00,WinterDesignDay
31,17992889.99869005
831,17992889.99869005
1043,2523038.1072451618
2,1,12,21, 0,16, 0.00,60.00,WinterDesignDay
31,17403247.868468655
831,17403247.868468655
1043,588176.4391655808
2,1,12,21, 0,17, 0.00,60.00,WinterDesignDay
31,18124050.18150649
831,18124050.18150649
1043,2527985.559061103
2,1,12,21, 0,18, 0.00,60.00,WinterDesignDay
31,17828262.23049199
831,17828262.23049199
1043,2680475.5398343086
2,1,12,21, 0,19, 0.00,60.00,WinterDesignDay
31,20955569.14637706
831,20955569.14637706
1043,2684016.923912144
2,1,12,21, 0,20, 0.00,60.00,WinterDesignDay
31,18203411.439444338
831,18203411.439444338
1043,2756668.6039105195
2,1,12,21, 0,21, 0.00,60.00,WinterDesignDay
31,18947171.90976148
831,18947171.909761479
1043,4778548.362233223
2,1,12,21, 0,22, 0.00,60.00,WinterDesignDay
31,18219479.13443216
831,18219479.13443216
1043,2746039.6458610666
2,1,12,21, 0,23, 0.00,60.00,WinterDesignDay
31,18955020.18257677
831,18955020.18257677
1043,4769769.740823304
2,1,12,21, 0,24, 0.00,60.00,WinterDesignDay
31,18221303.67103182
831,18221303.671031819
1043,2722328.225847195
1,TUCSON-DAVIS-MONTHAN.AFB_AZ_USA ANN CLG .4% CONDNS DB=>MWB,  33.45,-111.98,  -7.00, 337.00
2,1, 7,21, 0, 1, 0.00,60.00,SummerDesignDay
31,42546958.43809402
831,42546958.43809402
1043,0.0
2,1, 7,21, 0, 2, 0.00,60.00,SummerDesignDay
31,40601846.45296332
831,40601846.45296332
1043,0.0
2,1, 7,21, 0, 3, 0.00,60.00,SummerDesignDay
31,42174215.49018504
831,42174215.490185048
1043,0.0
2,1, 7,21, 0, 4, 0.00,60.00,SummerDesignDay
31,40189593.65813139
831,40189593.6581314
1043,0.0
2,1, 7,21, 0, 5, 0.00,60.00,SummerDesignDay
31,43660603.45129705
831,43660603.45129705
1043,0.0
2,1, 7,21, 0, 6, 0.00,60.00,SummerDesignDay
31,40113748.04833956
831,40113748.04833956
1043,0.0
2,1, 7,21, 0, 7, 0.00,60.00,SummerDesignDay
31,47288719.086355138
831,47288719.086355138
1043,0.0
2,1, 7,21, 0, 8, 0.00,60.00,SummerDesignDay
31,46877590.169421669
831,46877590.16942167
1043,0.0
2,1, 7,21, 0, 9, 0.00,60.00,SummerDesignDay
31,48445104.6640056
831,48445104.6640056
1043,0.0
2,1, 7,21, 0,10, 0.00,60.00,SummerDesignDay
31,50386028.392083089
831,50386028.39208311
1043,0.0
2,1, 7,21, 0,11, 0.00,60.00,SummerDesignDay
31,52122707.93070561
831,52122707.93070562
1043,0.0
2,1, 7,21, 0,12, 0.00,60.00,SummerDesignDay
31,53483413.03586818
831,53483413.03586819
1043,0.0
2,1, 7,21, 0,13, 0.00,60.00,SummerDesignDay
31,54744184.95122257
831,54744184.95122257
1043,0.0
2,1, 7,21, 0,14, 0.00,60.00,SummerDesignDay
31,55549163.2673464
831,55549163.2673464
1043,0.0
2,1, 7,21, 0,15, 0.00,60.00,SummerDesignDay
31,55956797.92163286
831,55956797.92163287
1043,0.0
2,1, 7,21, 0,16, 0.00,60.00,SummerDesignDay
31,56269741.69743942
831,56269741.69743944
1043,0.0
2,1, 7,21, 0,17, 0.00,60.00,SummerDesignDay
31,55850273.72703727
831,55850273.72703728
1043,0.0
2,1, 7,21, 0,18, 0.00,60.00,SummerDesignDay
31,54985024.98109716
831,54985024.98109718
1043,0.0
2,1, 7,21, 0,19, 0.00,60.00,SummerDesignDay
31,54127586.810891438
831,54127586.81089145
1043,0.0
2,1, 7,21, 0,20, 0.00,60.00,SummerDesignDay
31,48222010.264980789
831,48222010.26498078
1043,0.0
2,1, 7,21, 0,21, 0.00,60.00,SummerDesignDay
31,45019606.61117439
831,45019606.61117439
1043,0.0
2,1, 7,21, 0,22, 0.00,60.00,SummerDesignDay
31,47110797.898462239
831,47110797.89846223
1043,0.0
2,1, 7,21, 0,23, 0.00,60.00,SummerDesignDay
31,42482709.56917442
831,42482709.56917442
1043,0.0
2,1, 7,21, 0,24, 0.00,60.00,SummerDesignDay
31,43870932.237346339
831,43870932.237346339
1043,0.0
1,Phoenix Sky Harbor Intl Ap AZ USA TMY3 WMO#=722780,  33.45,-111.98,  -7.00, 337.00
2,1, 1, 1, 0, 1, 0.00,60.00,Holiday
31,5504338.596677196
831,5504338.596677196
1043,0.0
2,1, 1, 1, 0, 2, 0.00,60.00,Holiday
31,5504338.596677196
831,5504338.596677196
1043,0.0
2,1, 1, 1, 0, 3, 0.00,60.00,Holiday
31,5504338.596677196
831,5504338.596677196
1043,0.0
2,1, 1, 1, 0, 4, 0.00,60.00,Holiday
31,5504338.596677196
831,5504338.596677196
1043,0.0
2,1, 1, 1, 0, 5, 0.00,60.00,Holiday
31,5504338.596677196
831,5504338.596677196
1043,0.0
2,1, 1, 1, 0, 6, 0.00,60.00,Holiday
31,5504338.596677196
831,5504338.596677196
1043,0.0
2,1, 1, 1, 0, 7, 0.00,60.00,Holiday
31,6695938.596677196
831,6695938.596677196
1043,0.0
2,1, 1, 1, 0, 8, 0.00,60.00,Holiday
31,5595598.596677196
831,5595598.596677196
1043,0.0
2,1, 1, 1, 0, 9, 0.00,60.00,Holiday
31,4495258.596677196
831,4495258.596677197
1043,0.0
2,1, 1, 1, 0,10, 0.00,60.00,Holiday
31,4495258.596677196
831,4495258.596677197
1043,0.0
2,1, 1, 1, 0,11, 0.00,60.00,Holiday
31,4495258.596677196
831,4495258.596677196
1043,0.0
2,1, 1, 1, 0,12, 0.00,60.00,Holiday
31,4495258.596677196
831,4495258.596677196
1043,0.0
2,1, 1, 1, 0,13, 0.00,60.00,Holiday
31,4495258.596677196
831,4495258.596677197
1043,0.0
2,1, 1, 1, 0,14, 0.00,60.00,Holiday
31,4495258.596677196
831,4495258.596677196
1043,0.0
2,1, 1, 1, 0,15, 0.00,60.00,Holiday
31,4495258.596677196
831,4495258.596677196
1043,0.0
2,1, 1, 1, 0,16, 0.00,60.00,Holiday
31,4495258.596677196
831,4495258.596677196
1043,0.0
2,1, 1, 1, 0,17, 0.00,60.00,Holiday
31,4495258.596677196
831,4495258.596677197
1043,0.0
2,1, 1, 1, 0,18, 0.00,60.00,Holiday
31,5962378.596677196
831,5962378.596677196
1043,0.0
2,1, 1, 1, 0,19, 0.00,60.00,Holiday
31,6695938.596677196
831,6695938.596677196
1043,0.0
2,1, 1, 1, 0,20, 0.00,60.00,Holiday
31,5894038.596677196
831,5894038.596677195
1043,0.0
2,1, 1, 1, 0,21, 0.00,60.00,Holiday
31,5894038.596677196
831,5894038.596677196
1043,0.0
2,1, 1, 1, 0,22, 0.00,60.00,Holiday
31,5894038.596677196
831,5894038.596677196
1043,0.0
2,1, 1, 1, 0,23, 0.00,60.00,Holiday
31,5894038.596677196
831,5894038.596677196
1043,0.0
2,1, 1, 1, 0,24, 0.00,60.00,Holiday
31,5894038.596677196
831,5894038.596677196
1043,0.0
2,2, 1, 2, 0, 1, 0.00,60.00,Monday
31,8569604.825749658
831,8569604.825749658
1043,0.0
2,2, 1, 2, 0, 2, 0.00,60.00,Monday
31,8569604.825749658
831,8569604.825749658
1043,0.0
2,2, 1, 2, 0, 3, 0.00,60.00,Monday
31,8569604.825749658
831,8569604.825749658
1043,0.0
2,2, 1, 2, 0, 4, 0.00,60.00,Monday
31,8569604.825749658
831,8569604.825749658
1043,0.0
2,2, 1, 2, 0, 5, 0.00,60.00,Monday
31,8569604.825749658
831,8569604.825749658
1043,0.0
2,2, 1, 2, 0, 6, 0.00,60.00,Monday
31,8569604.825749658
831,8569604.825749658
1043,0.0
2,2, 1, 2, 0, 7, 0.00,60.00,Monday
31,19868050.763927346
831,19868050.763927346
1043,0.0
2,2, 1, 2, 0, 8, 0.00,60.00,Monday
31,21960780.578287327
831,21960780.578287327
1043,0.0
2,2, 1, 2, 0, 9, 0.00,60.00,Monday
31,30277333.969396376
831,30277333.969396384
1043,0.0
2,2, 1, 2, 0,10, 0.00,60.00,Monday
31,29596752.67741426
831,29596752.67741427
1043,0.0
2,2, 1, 2, 0,11, 0.00,60.00,Monday
31,29838219.889096999
831,29838219.889096999
1043,0.0
2,2, 1, 2, 0,12, 0.00,60.00,Monday
31,30616004.074555927
831,30616004.074555935
1043,0.0
2,2, 1, 2, 0,13, 0.00,60.00,Monday
31,28064982.83459977
831,28064982.83459977
1043,0.0
2,2, 1, 2, 0,14, 0.00,60.00,Monday
31,31350014.69610763
831,31350014.696107635
1043,0.0
2,2, 1, 2, 0,15, 0.00,60.00,Monday
31,32071985.783622587
831,32071985.783622587
1043,0.0
2,2, 1, 2, 0,16, 0.00,60.00,Monday
31,32640830.427693249
831,32640830.427693249
1043,0.0
2,2, 1, 2, 0,17, 0.00,60.00,Monday
31,32915411.337763277
831,32915411.337763285
1043,0.0
2,2, 1, 2, 0,18, 0.00,60.00,Monday
31,23056685.37166501
831,23056685.37166501
1043,0.0
2,2, 1, 2, 0,19, 0.00,60.00,Monday
31,17637694.072561947
831,17637694.072561943
1043,0.0
2,2, 1, 2, 0,20, 0.00,60.00,Monday
31,10953154.258345897
831,10953154.258345895
1043,0.0
2,2, 1, 2, 0,21, 0.00,60.00,Monday
31,9737784.395628443
831,9737784.395628443
1043,0.0
2,2, 1, 2, 0,22, 0.00,60.00,Monday
31,9737784.395628443
831,9737784.395628443
1043,0.0
2,2, 1, 2, 0,23, 0.00,60.00,Monday
31,8643951.519120457
831,8643951.519120455
1043,0.0
2,2, 1, 2, 0,24, 0.00,60.00,Monday
31,6297449.08321209
831,6297449.08321209
1043,0.0
2,3, 1, 3, 0, 1, 0.00,60.00,Tuesday
31,8569604.825749658
831,8569604.825749658
1043,0.0
2,3, 1, 3, 0, 2, 0.00,60.00,Tuesday
31,8569604.825749658
831,8569604.825749658
1043,0.0
2,3, 1, 3, 0, 3, 0.00,60.00,Tuesday
31,8569604.825749658
831,8569604.825749658
1043,0.0
2,3, 1, 3, 0, 4, 0.00,60.00,Tuesday
31,8569604.825749658
831,8569604.825749658
1043,0.0
2,3, 1, 3, 0, 5, 0.00,60.00,Tuesday
31,8569604.825749658
831,8569604.825749658
1043,0.0
2,3, 1, 3, 0, 6, 0.00,60.00,Tuesday
31,8569604.825749658
831,8569604.825749658
1043,0.0
2,3, 1, 3, 0, 7, 0.00,60.00,Tuesday
31,19304929.187236098
831,19304929.187236098
1043,0.0
2,3, 1, 3, 0, 8, 0.00,60.00,Tuesday
31,22341284.13266081
831,22341284.132660815
1043,0.0
2,3, 1, 3, 0, 9, 0.00,60.00,Tuesday
31,29970356.54753968
831,29970356.54753968
1043,0.0
2,3, 1, 3, 0,10, 0.00,60.00,Tuesday
31,29655000.84210565
831,29655000.842105658
1043,0.0
2,3, 1, 3, 0,11, 0.00,60.00,Tuesday
31,30172053.15422033
831,30172053.15422033
1043,0.0
2,3, 1, 3, 0,12, 0.00,60.00,Tuesday
31,30935214.791885429
831,30935214.791885429
1043,0.0
2,3, 1, 3, 0,13, 0.00,60.00,Tuesday
31,28323733.031754719
831,28323733.03175472
1043,0.0
2,3, 1, 3, 0,14, 0.00,60.00,Tuesday
31,31547384.522408319
831,31547384.52240832
1043,0.0
2,3, 1, 3, 0,15, 0.00,60.00,Tuesday
31,32199465.36887586
831,32199465.36887587
1043,0.0
2,3, 1, 3, 0,16, 0.00,60.00,Tuesday
31,32513022.17512857
831,32513022.175128577
1043,0.0
2,3, 1, 3, 0,17, 0.00,60.00,Tuesday
31,33160989.90283874
831,33160989.90283874
1043,0.0
2,3, 1, 3, 0,18, 0.00,60.00,Tuesday
31,23267965.38901823
831,23267965.38901823
1043,0.0
2,3, 1, 3, 0,19, 0.00,60.00,Tuesday
31,17637694.072561947
831,17637694.072561943
1043,0.0
2,3, 1, 3, 0,20, 0.00,60.00,Tuesday
31,10953154.258345897
831,10953154.258345895
1043,0.0
2,3, 1, 3, 0,21, 0.00,60.00,Tuesday
31,9737784.395628443
831,9737784.395628443
1043,0.0
2,3, 1, 3, 0,22, 0.00,60.00,Tuesday
31,9737784.395628443
831,9737784.395628443
1043,0.0
2,3, 1, 3, 0,23, 0.00,60.00,Tuesday
31,8643951.519120457
831,8643951.519120455
1043,0.0
2,3, 1, 3, 0,24, 0.00,60.00,Tuesday
31,6297449.08321209
831,6297449.08321209
1043,0.0
2,4, 1, 4, 0, 1, 0.00,60.00,Wednesday
31,8569604.825749658
831,8569604.825749658
1043,0.0
2,4, 1, 4, 0, 2, 0.00,60.00,Wednesday
31,8569604.825749658
831,8569604.825749658
1043,0.0
2,4, 1, 4, 0, 3, 0.00,60.00,Wednesday
31,8569604.825749658
831,8569604.825749658
1043,0.0
2,4, 1, 4, 0, 4, 0.00,60.00,Wednesday
31,8569604.825749658
831,8569604.825749658
1043,0.0
2,4, 1, 4, 0, 5, 0.00,60.00,Wednesday
31,8569604.825749658
831,8569604.825749658
1043,0.0
2,4, 1, 4, 0, 6, 0.00,60.00,Wednesday
31,8569604.825749658
831,8569604.825749658
1043,0.0
2,4, 1, 4, 0, 7, 0.00,60.00,Wednesday
31,20818287.193552168
831,20818287.193552168
1043,0.0
2,4, 1, 4, 0, 8, 0.00,60.00,Wednesday
31,23882770.163863023
831,23882770.163863023
1043,0.0
2,4, 1, 4, 0, 9, 0.00,60.00,Wednesday
31,29893122.48018687
831,29893122.48018687
1043,0.0
2,4, 1, 4, 0,10, 0.00,60.00,Wednesday
31,29802954.43379856
831,29802954.43379856
1043,0.0
2,4, 1, 4, 0,11, 0.00,60.00,Wednesday
31,30269806.432353666
831,30269806.432353677
1043,0.0
2,4, 1, 4, 0,12, 0.00,60.00,Wednesday
31,31068355.56590268
831,31068355.565902689
1043,0.0
2,4, 1, 4, 0,13, 0.00,60.00,Wednesday
31,28888827.0033992
831,28888827.0033992
1043,0.0
2,4, 1, 4, 0,14, 0.00,60.00,Wednesday
31,33052674.98387763
831,33052674.983877634
1043,0.0
2,4, 1, 4, 0,15, 0.00,60.00,Wednesday
31,34107487.29856426
831,34107487.29856426
1043,0.0
2,4, 1, 4, 0,16, 0.00,60.00,Wednesday
31,34763513.45289915
831,34763513.45289915
1043,0.0
2,4, 1, 4, 0,17, 0.00,60.00,Wednesday
31,34820294.000570829
831,34820294.000570829
1043,0.0
2,4, 1, 4, 0,18, 0.00,60.00,Wednesday
31,23838460.17033384
831,23838460.17033384
1043,0.0
2,4, 1, 4, 0,19, 0.00,60.00,Wednesday
31,17637694.072561947
831,17637694.072561947
1043,0.0
2,4, 1, 4, 0,20, 0.00,60.00,Wednesday
31,10953154.258345897
831,10953154.258345895
1043,0.0
2,4, 1, 4, 0,21, 0.00,60.00,Wednesday
31,9737784.395628443
831,9737784.395628443
1043,0.0
2,4, 1, 4, 0,22, 0.00,60.00,Wednesday
31,9737784.395628443
831,9737784.395628443
1043,0.0
2,4, 1, 4, 0,23, 0.00,60.00,Wednesday
31,8643951.519120457
831,8643951.519120455
1043,0.0
2,4, 1, 4, 0,24, 0.00,60.00,Wednesday
31,6297449.08321209
831,6297449.08321209
1043,0.0
2,5, 1, 5, 0, 1, 0.00,60.00,Thursday
31,8569604.825749658
831,8569604.825749658
1043,0.0
2,5, 1, 5, 0, 2, 0.00,60.00,Thursday
31,8569604.825749658
831,8569604.825749658
1043,0.0
2,5, 1, 5, 0, 3, 0.00,60.00,Thursday
31,8569604.825749658
831,8569604.825749658
1043,0.0
2,5, 1, 5, 0, 4, 0.00,60.00,Thursday
31,8569604.825749658
831,8569604.825749658
1043,0.0
2,5, 1, 5, 0, 5, 0.00,60.00,Thursday
31,8569604.825749658
831,8569604.825749658
1043,0.0
2,5, 1, 5, 0, 6, 0.00,60.00,Thursday
31,8569604.825749658
831,8569604.825749658
1043,0.0
2,5, 1, 5, 0, 7, 0.00,60.00,Thursday
31,20520464.775281226
831,20520464.775281226
1043,0.0
2,5, 1, 5, 0, 8, 0.00,60.00,Thursday
31,24315897.115679135
831,24315897.11567913
1043,0.0
2,5, 1, 5, 0, 9, 0.00,60.00,Thursday
31,29893122.48018687
831,29893122.48018687
1043,0.0
2,5, 1, 5, 0,10, 0.00,60.00,Thursday
31,29802954.43379856
831,29802954.43379856
1043,0.0
2,5, 1, 5, 0,11, 0.00,60.00,Thursday
31,30374510.15799672
831,30374510.15799673
1043,0.0
2,5, 1, 5, 0,12, 0.00,60.00,Thursday
31,31237087.588213665
831,31237087.588213669
1043,0.0
2,5, 1, 5, 0,13, 0.00,60.00,Thursday
31,28973410.8157823
831,28973410.8157823
1043,0.0
2,5, 1, 5, 0,14, 0.00,60.00,Thursday
31,33337002.26463306
831,33337002.264633065
1043,0.0
2,5, 1, 5, 0,15, 0.00,60.00,Thursday
31,34120428.030534397
831,34120428.030534397
1043,0.0
2,5, 1, 5, 0,16, 0.00,60.00,Thursday
31,34422625.98536092
831,34422625.98536092
1043,0.0
2,5, 1, 5, 0,17, 0.00,60.00,Thursday
31,34407621.76414283
831,34407621.76414284
1043,0.0
2,5, 1, 5, 0,18, 0.00,60.00,Thursday
31,23480037.20893308
831,23480037.20893308
1043,0.0
2,5, 1, 5, 0,19, 0.00,60.00,Thursday
31,17637694.072561947
831,17637694.072561943
1043,0.0
2,5, 1, 5, 0,20, 0.00,60.00,Thursday
31,10953154.258345897
831,10953154.258345895
1043,0.0
2,5, 1, 5, 0,21, 0.00,60.00,Thursday
31,9737784.395628443
831,9737784.395628443
1043,0.0
2,5, 1, 5, 0,22, 0.00,60.00,Thursday
31,9737784.395628443
831,9737784.395628443
1043,0.0
2,5, 1, 5, 0,23, 0.00,60.00,Thursday
31,8643951.519120457
831,8643951.519120455
1043,0.0
2,5, 1, 5, 0,24, 0.00,60.00,Thursday
31,6297449.08321209
831,6297449.08321209
1043,0.0
2,6, 1, 6, 0, 1, 0.00,60.00,Friday
31,8569604.825749658
831,8569604.825749658
1043,0.0
2,6, 1, 6, 0, 2, 0.00,60.00,Friday
31,8569604.825749658
831,8569604.825749658
1043,0.0
2,6, 1, 6, 0, 3, 0.00,60.00,Friday
31,8569604.825749658
831,8569604.825749658
1043,0.0
2,6, 1, 6, 0, 4, 0.00,60.00,Friday
31,8569604.825749658
831,8569604.825749658
1043,0.0
2,6, 1, 6, 0, 5, 0.00,60.00,Friday
31,8569604.825749658
831,8569604.825749658
1043,0.0
2,6, 1, 6, 0, 6, 0.00,60.00,Friday
31,8569604.825749658
831,8569604.825749658
1043,0.0
2,6, 1, 6, 0, 7, 0.00,60.00,Friday
31,21839247.91480456
831,21839247.914804557
1043,0.0
2,6, 1, 6, 0, 8, 0.00,60.00,Friday
31,25133121.85382812
831,25133121.85382812
1043,0.0
2,6, 1, 6, 0, 9, 0.00,60.00,Friday
31,30263155.535262605
831,30263155.535262605
1043,0.0
2,6, 1, 6, 0,10, 0.00,60.00,Friday
31,29545202.238318188
831,29545202.238318199
1043,0.0
2,6, 1, 6, 0,11, 0.00,60.00,Friday
31,29509773.629644738
831,29509773.62964474
1043,0.0
2,6, 1, 6, 0,12, 0.00,60.00,Friday
31,30338100.278813714
831,30338100.27881372
1043,0.0
2,6, 1, 6, 0,13, 0.00,60.00,Friday
31,28063007.946171777
831,28063007.946171777
1043,0.0
2,6, 1, 6, 0,14, 0.00,60.00,Friday
31,32347735.786838838
831,32347735.78683885
1043,0.0
2,6, 1, 6, 0,15, 0.00,60.00,Friday
31,33399481.264783574
831,33399481.264783577
1043,0.0
2,6, 1, 6, 0,16, 0.00,60.00,Friday
31,34270641.872265297
831,34270641.872265297
1043,0.0
2,6, 1, 6, 0,17, 0.00,60.00,Friday
31,34452353.54777515
831,34452353.54777515
1043,0.0
2,6, 1, 6, 0,18, 0.00,60.00,Friday
31,23689047.05857091
831,23689047.05857091
1043,0.0
2,6, 1, 6, 0,19, 0.00,60.00,Friday
31,17637694.072561947
831,17637694.072561943
1043,0.0
2,6, 1, 6, 0,20, 0.00,60.00,Friday
31,10953154.258345897
831,10953154.258345895
1043,0.0
2,6, 1, 6, 0,21, 0.00,60.00,Friday
31,9737784.395628443
831,9737784.395628443
1043,0.0
2,6, 1, 6, 0,22, 0.00,60.00,Friday
31,9737784.395628443
831,9737784.395628443
1043,0.0
2,6, 1, 6, 0,23, 0.00,60.00,Friday
31,8643951.519120457
831,8643951.519120455
1043,0.0
2,6, 1, 6, 0,24, 0.00,60.00,Friday
31,6297449.08321209
831,6297449.08321209
1043,0.0
2,7, 1, 7, 0, 1, 0.00,60.00,Saturday
31,5504338.596677196
831,5504338.596677196
1043,0.0
2,7, 1, 7, 0, 2, 0.00,60.00,Saturday
31,5504338.596677196
831,5504338.596677196
1043,0.0
2,7, 1, 7, 0, 3, 0.00,60.00,Saturday
31,5504338.596677196
831,5504338.596677196
1043,0.0
2,7, 1, 7, 0, 4, 0.00,60.00,Saturday
31,5504338.596677196
831,5504338.596677196
1043,0.0
2,7, 1, 7, 0, 5, 0.00,60.00,Saturday
31,5504338.596677196
831,5504338.596677196
1043,0.0
2,7, 1, 7, 0, 6, 0.00,60.00,Saturday
31,5504338.596677196
831,5504338.596677196
1043,0.0
2,7, 1, 7, 0, 7, 0.00,60.00,Saturday
31,6695938.596677196
831,6695938.596677196
1043,0.0
2,7, 1, 7, 0, 8, 0.00,60.00,Saturday
31,5595598.596677196
831,5595598.596677196
1043,0.0
2,7, 1, 7, 0, 9, 0.00,60.00,Saturday
31,4495258.596677196
831,4495258.596677197
1043,0.0
2,7, 1, 7, 0,10, 0.00,60.00,Saturday
31,4495258.596677196
831,4495258.596677196
1043,0.0
2,7, 1, 7, 0,11, 0.00,60.00,Saturday
31,4495258.596677196
831,4495258.596677196
1043,0.0
2,7, 1, 7, 0,12, 0.00,60.00,Saturday
31,4495258.596677196
831,4495258.596677196
1043,0.0
2,7, 1, 7, 0,13, 0.00,60.00,Saturday
31,4495258.596677196
831,4495258.596677197
1043,0.0
2,7, 1, 7, 0,14, 0.00,60.00,Saturday
31,4495258.596677196
831,4495258.596677196
1043,0.0
2,7, 1, 7, 0,15, 0.00,60.00,Saturday
31,4495258.596677196
831,4495258.596677196
1043,0.0
2,7, 1, 7, 0,16, 0.00,60.00,Saturday
31,4495258.596677196
831,4495258.596677196
1043,0.0
2,7, 1, 7, 0,17, 0.00,60.00,Saturday
31,4495258.596677196
831,4495258.596677197
1043,0.0
2,7, 1, 7, 0,18, 0.00,60.00,Saturday
31,5595598.596677196
831,5595598.596677196
1043,0.0
2,7, 1, 7, 0,19, 0.00,60.00,Saturday
31,6695938.596677196
831,6695938.596677196
1043,0.0
2,7, 1, 7, 0,20, 0.00,60.00,Saturday
31,5894038.596677196
831,5894038.596677195
1043,0.0
2,7, 1, 7, 0,21, 0.00,60.00,Saturday
31,5894038.596677196
831,5894038.596677196
1043,0.0
2,7, 1, 7, 0,22, 0.00,60.00,Saturday
31,5894038.596677196
831,5894038.596677196
1043,0.0
2,7, 1, 7, 0,23, 0.00,60.00,Saturday
31,5894038.596677196
831,5894038.596677196
1043,0.0
2,7, 1, 7, 0,24, 0.00,60.00,Saturday
31,5894038.596677196
831,5894038.596677196
1043,0.0
2,8, 1, 8, 0, 1, 0.00,60.00,Sunday
31,5504338.596677196
831,5504338.596677196
1043,0.0
2,8, 1, 8, 0, 2, 0.00,60.00,Sunday
31,5504338.596677196
831,5504338.596677196
1043,0.0
2,8, 1, 8, 0, 3, 0.00,60.00,Sunday
31,5504338.596677196
831,5504338.596677196
1043,0.0
2,8, 1, 8, 0, 4, 0.00,60.00,Sunday
31,5504338.596677196
831,5504338.596677196
1043,0.0
2,8, 1, 8, 0, 5, 0.00,60.00,Sunday
31,5504338.596677196
831,5504338.596677196
1043,0.0
2,8, 1, 8, 0, 6, 0.00,60.00,Sunday
31,5504338.596677196
831,5504338.596677196
1043,0.0
2,8, 1, 8, 0, 7, 0.00,60.00,Sunday
31,6695938.596677196
831,6695938.596677196
1043,0.0
2,8, 1, 8, 0, 8, 0.00,60.00,Sunday
31,5595598.596677196
831,5595598.596677196
1043,0.0
2,8, 1, 8, 0, 9, 0.00,60.00,Sunday
31,4495258.596677196
831,4495258.596677196
1043,0.0
2,8, 1, 8, 0,10, 0.00,60.00,Sunday
31,4495258.596677196
831,4495258.596677197
1043,0.0
2,8, 1, 8, 0,11, 0.00,60.00,Sunday
31,4495258.596677196
831,4495258.596677197
1043,0.0
2,8, 1, 8, 0,12, 0.00,60.00,Sunday
31,4495258.596677196
831,4495258.596677197
1043,0.0
2,8, 1, 8, 0,13, 0.00,60.00,Sunday
31,4495258.596677196
831,4495258.596677197
1043,0.0
2,8, 1, 8, 0,14, 0.00,60.00,Sunday
31,4495258.596677196
831,4495258.596677196
1043,0.0
2,8, 1, 8, 0,15, 0.00,60.00,Sunday
31,4495258.596677196
831,4495258.596677196
1043,0.0
2,8, 1, 8, 0,16, 0.00,60.00,Sunday
31,4495258.596677196
831,4495258.596677197
1043,0.0
2,8, 1, 8, 0,17, 0.00,60.00,Sunday
31,4495258.596677196
831,4495258.596677196
1043,0.0
2,8, 1, 8, 0,18, 0.00,60.00,Sunday
31,5595598.596677196
831,5595598.596677196
1043,0.0
2,8, 1, 8, 0,19, 0.00,60.00,Sunday
31,6695938.596677196
831,6695938.596677195
1043,0.0
2,8, 1, 8, 0,20, 0.00,60.00,Sunday
31,5894038.596677196
831,5894038.596677195
1043,0.0
2,8, 1, 8, 0,21, 0.00,60.00,Sunday
31,5894038.596677196
831,5894038.596677196
1043,0.0
2,8, 1, 8, 0,22, 0.00,60.00,Sunday
31,5894038.596677196
831,5894038.596677196
1043,0.0
2,8, 1, 8, 0,23, 0.00,60.00,Sunday
31,5894038.596677196
831,5894038.596677196
1043,0.0
2,8, 1, 8, 0,24, 0.00,60.00,Sunday
31,5894038.596677196
831,5894038.596677196
1043,0.0
2,9, 1, 9, 0, 1, 0.00,60.00,Monday
31,8569604.825749658
831,8569604.825749658
1043,0.0
2,9, 1, 9, 0, 2, 0.00,60.00,Monday
31,8569604.825749658
831,8569604.825749658
1043,0.0
2,9, 1, 9, 0, 3, 0.00,60.00,Monday
31,8569604.825749658
831,8569604.825749658
1043,0.0
2,9, 1, 9, 0, 4, 0.00,60.00,Monday
31,8569604.825749658
831,8569604.825749658
1043,0.0
2,9, 1, 9, 0, 5, 0.00,60.00,Monday
31,8569604.825749658
831,8569604.825749658
1043,0.0
2,9, 1, 9, 0, 6, 0.00,60.00,Monday
31,8569604.825749658
831,8569604.825749658
1043,0.0
2,9, 1, 9, 0, 7, 0.00,60.00,Monday
31,18662500.09314209
831,18662500.093142094
1043,0.0
2,9, 1, 9, 0, 8, 0.00,60.00,Monday
31,21240278.192675465
831,21240278.192675465
1043,0.0
2,9, 1, 9, 0, 9, 0.00,60.00,Monday
31,29963867.08000862
831,29963867.080008624
1043,0.0
2,9, 1, 9, 0,10, 0.00,60.00,Monday
31,29681183.572577154
831,29681183.572577165
1043,0.0
2,9, 1, 9, 0,11, 0.00,60.00,Monday
31,30856056.165467368
831,30856056.16546737
1043,0.0
2,9, 1, 9, 0,12, 0.00,60.00,Monday
31,31989084.95086257
831,31989084.95086258
1043,0.0
2,9, 1, 9, 0,13, 0.00,60.00,Monday
31,30066647.68133408
831,30066647.681334083
1043,0.0
2,9, 1, 9, 0,14, 0.00,60.00,Monday
31,33809131.79545693
831,33809131.79545693
1043,0.0
2,9, 1, 9, 0,15, 0.00,60.00,Monday
31,34618108.100192259
831,34618108.100192267
1043,0.0
2,9, 1, 9, 0,16, 0.00,60.00,Monday
31,34948452.57431116
831,34948452.57431117
1043,0.0
2,9, 1, 9, 0,17, 0.00,60.00,Monday
31,35227420.672918017
831,35227420.672918017
1043,0.0
2,9, 1, 9, 0,18, 0.00,60.00,Monday
31,24416730.676588738
831,24416730.67658874
1043,0.0
2,9, 1, 9, 0,19, 0.00,60.00,Monday
31,17637694.072561947
831,17637694.072561947
1043,0.0
2,9, 1, 9, 0,20, 0.00,60.00,Monday
31,10953154.258345897
831,10953154.258345895
1043,0.0
2,9, 1, 9, 0,21, 0.00,60.00,Monday
31,9737784.395628443
831,9737784.395628443
1043,0.0
2,9, 1, 9, 0,22, 0.00,60.00,Monday
31,9737784.395628443
831,9737784.395628443
1043,0.0
2,9, 1, 9, 0,23, 0.00,60.00,Monday
31,8643951.519120457
831,8643951.519120455
1043,0.0
2,9, 1, 9, 0,24, 0.00,60.00,Monday
31,6297449.08321209
831,6297449.08321209
1043,0.0
2,10, 1,10, 0, 1, 0.00,60.00,Tuesday
31,8569604.825749658
831,8569604.825749658
1043,0.0
2,10, 1,10, 0, 2, 0.00,60.00,Tuesday
31,8569604.825749658
831,8569604.825749658
1043,0.0
2,10, 1,10, 0, 3, 0.00,60.00,Tuesday
31,8569604.825749658
831,8569604.825749658
1043,0.0
2,10, 1,10, 0, 4, 0.00,60.00,Tuesday
31,8569604.825749658
831,8569604.825749658
1043,0.0
2,10, 1,10, 0, 5, 0.00,60.00,Tuesday
31,8569604.825749658
831,8569604.825749658
1043,0.0
2,10, 1,10, 0, 6, 0.00,60.00,Tuesday
31,8569604.825749658
831,8569604.825749658
1043,0.0
2,10, 1,10, 0, 7, 0.00,60.00,Tuesday
31,18519955.434482874
831,18519955.434482874
1043,0.0
2,10, 1,10, 0, 8, 0.00,60.00,Tuesday
31,20723464.01022576
831,20723464.01022576
1043,0.0
2,10, 1,10, 0, 9, 0.00,60.00,Tuesday
31,30847672.753086967
831,30847672.753086978
1043,0.0
2,10, 1,10, 0,10, 0.00,60.00,Tuesday
31,30339871.980140266
831,30339871.98014027
1043,0.0
2,10, 1,10, 0,11, 0.00,60.00,Tuesday
31,30304096.861170047
831,30304096.86117005
1043,0.0
2,10, 1,10, 0,12, 0.00,60.00,Tuesday
31,32073044.100669426
831,32073044.10066943
1043,0.0
2,10, 1,10, 0,13, 0.00,60.00,Tuesday
31,30868775.121791658
831,30868775.121791658
1043,0.0
2,10, 1,10, 0,14, 0.00,60.00,Tuesday
31,35132812.92235959
831,35132812.92235959
1043,0.0
2,10, 1,10, 0,15, 0.00,60.00,Tuesday
31,35447627.17513534
831,35447627.17513534
1043,0.0
2,10, 1,10, 0,16, 0.00,60.00,Tuesday
31,36248509.939807768
831,36248509.93980777
1043,0.0
2,10, 1,10, 0,17, 0.00,60.00,Tuesday
31,35728181.77876989
831,35728181.778769899
1043,0.0
2,10, 1,10, 0,18, 0.00,60.00,Tuesday
31,23329984.816780636
831,23329984.816780636
1043,0.0
2,10, 1,10, 0,19, 0.00,60.00,Tuesday
31,17637694.072561947
831,17637694.072561947
1043,0.0
2,10, 1,10, 0,20, 0.00,60.00,Tuesday
31,10953154.258345897
831,10953154.258345895
1043,0.0
2,10, 1,10, 0,21, 0.00,60.00,Tuesday
31,9737784.395628443
831,9737784.395628443
1043,0.0
2,10, 1,10, 0,22, 0.00,60.00,Tuesday
31,9737784.395628443
831,9737784.395628443
1043,0.0
2,10, 1,10, 0,23, 0.00,60.00,Tuesday
31,8643951.519120457
831,8643951.519120455
1043,0.0
2,10, 1,10, 0,24, 0.00,60.00,Tuesday
31,6297449.08321209
831,6297449.08321209
1043,0.0
2,11, 1,11, 0, 1, 0.00,60.00,Wednesday
31,8569604.825749658
831,8569604.825749658
1043,0.0
2,11, 1,11, 0, 2, 0.00,60.00,Wednesday
31,8569604.825749658
831,8569604.825749658
1043,0.0
2,11, 1,11, 0, 3, 0.00,60.00,Wednesday
31,8569604.825749658
831,8569604.825749658
1043,0.0
2,11, 1,11, 0, 4, 0.00,60.00,Wednesday
31,8569604.825749658
831,8569604.825749658
1043,0.0
2,11, 1,11, 0, 5, 0.00,60.00,Wednesday
31,8569604.825749658
831,8569604.825749658
1043,0.0
2,11, 1,11, 0, 6, 0.00,60.00,Wednesday
31,8569604.825749658
831,8569604.825749658
1043,0.0
2,11, 1,11, 0, 7, 0.00,60.00,Wednesday
31,18519955.434482874
831,18519955.434482874
1043,0.0
2,11, 1,11, 0, 8, 0.00,60.00,Wednesday
31,21083744.990794694
831,21083744.99079469
1043,0.0
2,11, 1,11, 0, 9, 0.00,60.00,Wednesday
31,29901449.90085964
831,29901449.90085964
1043,0.0
2,11, 1,11, 0,10, 0.00,60.00,Wednesday
31,30740397.823131708
831,30740397.82313171
1043,0.0
2,11, 1,11, 0,11, 0.00,60.00,Wednesday
31,32303046.865905994
831,32303046.865905998
1043,0.0
2,11, 1,11, 0,12, 0.00,60.00,Wednesday
31,33960861.09658587
831,33960861.09658588
1043,0.0
2,11, 1,11, 0,13, 0.00,60.00,Wednesday
31,32367941.798363314
831,32367941.79836332
1043,0.0
2,11, 1,11, 0,14, 0.00,60.00,Wednesday
31,35984031.51481956
831,35984031.51481958
1043,0.0
2,11, 1,11, 0,15, 0.00,60.00,Wednesday
31,36516148.182190369
831,36516148.18219037
1043,0.0
2,11, 1,11, 0,16, 0.00,60.00,Wednesday
31,37094823.8343086
831,37094823.8343086
1043,0.0
2,11, 1,11, 0,17, 0.00,60.00,Wednesday
31,37188365.45095716
831,37188365.45095716
1043,0.0
2,11, 1,11, 0,18, 0.00,60.00,Wednesday
31,26029026.110289229
831,26029026.110289229
1043,0.0
2,11, 1,11, 0,19, 0.00,60.00,Wednesday
31,17637694.072561947
831,17637694.072561943
1043,0.0
2,11, 1,11, 0,20, 0.00,60.00,Wednesday
31,10953154.258345897
831,10953154.258345895
1043,0.0
2,11, 1,11, 0,21, 0.00,60.00,Wednesday
31,9737784.395628443
831,9737784.395628443
1043,0.0
2,11, 1,11, 0,22, 0.00,60.00,Wednesday
31,9737784.395628443
831,9737784.395628443
1043,0.0
2,11, 1,11, 0,23, 0.00,60.00,Wednesday
31,8643951.519120457
831,8643951.519120455
1043,0.0
2,11, 1,11, 0,24, 0.00,60.00,Wednesday
31,6297449.08321209
831,6297449.08321209
1043,0.0
2,12, 1,12, 0, 1, 0.00,60.00,Thursday
31,8569604.825749658
831,8569604.825749658
1043,0.0
2,12, 1,12, 0, 2, 0.00,60.00,Thursday
31,8569604.825749658
831,8569604.825749658
1043,0.0
2,12, 1,12, 0, 3, 0.00,60.00,Thursday
31,8569604.825749658
831,8569604.825749658
1043,0.0
2,12, 1,12, 0, 4, 0.00,60.00,Thursday
31,8569604.825749658
831,8569604.825749658
1043,0.0
2,12, 1,12, 0, 5, 0.00,60.00,Thursday
31,8569604.825749658
831,8569604.825749658
1043,0.0
2,12, 1,12, 0, 6, 0.00,60.00,Thursday
31,8569604.825749658
831,8569604.825749658
1043,0.0
2,12, 1,12, 0, 7, 0.00,60.00,Thursday
31,18679145.246420225
831,18679145.246420225
1043,0.0