Program Version,EnergyPlus, Version 8.6.0-198c6a3cff, YMD=2019.03.03 19:14
1,5,Environment Title[],Latitude[deg],Longitude[deg],Time Zone[],Elevation[m]
2,6,Day of Simulation[],Month[],Day of Month[],DST Indicator[1=yes 0=no],Hour[],StartMinute[],EndMinute[],DayType
3,3,Cumulative Day of Simulation[],Month[],Day of Month[],DST Indicator[1=yes 0=no],DayType  ! When Daily Report Variables Requested
4,2,Cumulative Days of Simulation[],Month[]  ! When Monthly Report Variables Requested
5,1,Cumulative Days of Simulation[] ! When Run Period Report Variables Requested
525,1,CORE_ZN,Zone Predicted Sensible Load to Setpoint Heat Transfer Rate [W] !Hourly
526,1,CORE_ZN,Zone Predicted Sensible Load to Heating Setpoint Heat Transfer Rate [W] !Hourly
527,1,CORE_ZN,Zone Predicted Sensible Load to Cooling Setpoint Heat Transfer Rate [W] !Hourly
562,1,PERIMETER_ZN_1,Zone Predicted Sensible Load to Setpoint Heat Transfer Rate [W] !Hourly
563,1,PERIMETER_ZN_1,Zone Predicted Sensible Load to Heating Setpoint Heat Transfer Rate [W] !Hourly
564,1,PERIMETER_ZN_1,Zone Predicted Sensible Load to Cooling Setpoint Heat Transfer Rate [W] !Hourly
599,1,PERIMETER_ZN_2,Zone Predicted Sensible Load to Setpoint Heat Transfer Rate [W] !Hourly
600,1,PERIMETER_ZN_2,Zone Predicted Sensible Load to Heating Setpoint Heat Transfer Rate [W] !Hourly
601,1,PERIMETER_ZN_2,Zone Predicted Sensible Load to Cooling Setpoint Heat Transfer Rate [W] !Hourly
636,1,PERIMETER_ZN_3,Zone Predicted Sensible Load to Setpoint Heat Transfer Rate [W] !Hourly
637,1,PERIMETER_ZN_3,Zone Predicted Sensible Load to Heating Setpoint Heat Transfer Rate [W] !Hourly
638,1,PERIMETER_ZN_3,Zone Predicted Sensible Load to Cooling Setpoint Heat Transfer Rate [W] !Hourly
673,1,PERIMETER_ZN_4,Zone Predicted Sensible Load to Setpoint Heat Transfer Rate [W] !Hourly
674,1,PERIMETER_ZN_4,Zone Predicted Sensible Load to Heating Setpoint Heat Transfer Rate [W] !Hourly
675,1,PERIMETER_ZN_4,Zone Predicted Sensible Load to Cooling Setpoint Heat Transfer Rate [W] !Hourly
710,1,ATTIC,Zone Predicted Sensible Load to Setpoint Heat Transfer Rate [W] !Hourly
711,1,ATTIC,Zone Predicted Sensible Load to Heating Setpoint Heat Transfer Rate [W] !Hourly
712,1,ATTIC,Zone Predicted Sensible Load to Cooling Setpoint Heat Transfer Rate [W] !Hourly
End of Data Dictionary
1,TUCSON-DAVIS-MONTHAN.AFB_AZ_USA ANN HTG 99.6% CONDNS DB,  33.45,-111.98,  -7.00, 337.00
2,1,12,21, 0, 1, 0.00,60.00,WinterDesignDay
525,1489.156062667765
526,1437.1749772371156
527,36277.4034915332
562,2266.2432612043817
563,2232.369435612431
564,30272.068606583925
599,1390.1773933631573
600,1345.8650097506304
601,18194.718919790434
636,2256.8328603476716
637,2218.1987030119053
638,30211.222835753168
673,1390.7202060961301
674,1348.2806081310887
675,18194.42152042706
710,0.0
711,0.0
712,0.0
2,1,12,21, 0, 2, 0.00,60.00,WinterDesignDay
525,1234.8341250069425
526,1183.640161391848
527,33865.76762680509
562,2343.7575860783477
563,2311.5408152233395
564,28772.677189319704
599,1455.9963355471825
600,1414.0883426414402
601,17327.835009656046
636,2340.855587845914
637,2305.0666456765557
638,28729.921303666804
673,1456.155470107954
674,1412.7554700170997
675,17328.49900069729
710,0.0
711,0.0
712,0.0
2,1,12,21, 0, 3, 0.00,60.00,WinterDesignDay
525,1332.121074695482
526,1230.7215994967935
527,33709.97234839713
562,1983.8945551000688
563,1923.1178060482562
564,27929.58502438843
599,1180.016020206764
600,1099.0823871210166
601,16702.47287363242
636,1967.8903175502262
637,1899.8738648257693
638,27829.7138198014
673,1176.2054707044008
674,1088.0757855078127
675,16695.667192406832
710,0.0
711,0.0
712,0.0
2,1,12,21, 0, 4, 0.00,60.00,WinterDesignDay
525,1216.1600542947044
526,1165.8347355302546
527,33832.8256260086
562,2361.8995994653255
563,2332.4740799281303
564,28813.655516744595
599,1467.47756920755
600,1427.4445066509852
601,17350.082030700658
636,2358.0923857503008
637,2324.839427725054
638,28767.246256894374
673,1466.407417188805
674,1422.09729275409
675,17346.451476450024
710,0.0
711,0.0
712,0.0
2,1,12,21, 0, 5, 0.00,60.00,WinterDesignDay
525,1315.4466849134526
526,1215.44641213047
527,33687.44974885343
562,1993.9771666589925
563,1935.8352752025394
564,27954.320312120195
599,1185.744116296837
600,1106.0652638247295
601,16712.602221442703
636,1976.7498359354388
637,1910.883237806668
638,27848.32727172636
673,1179.2792942809276
674,1090.527002695786
675,16700.698080198392
710,0.0
711,0.0
712,0.0
2,1,12,21, 0, 6, 0.00,60.00,WinterDesignDay
525,1202.073161575557
526,1152.3833140160634
527,33811.300796409494
562,2365.339151924504
563,2336.4628209327857
564,28821.661523402723
599,1469.9605408080304
600,1430.2399231872284
601,17355.105571125318
636,2361.4692133830613
637,2328.7222726100604
638,28774.774408803878
673,1468.3310727276457
674,1423.9362454799054
675,17350.14831105842
710,0.0
711,0.0
712,0.0
2,1,12,21, 0, 7, 0.00,60.00,WinterDesignDay
525,1300.8439484247829
526,1202.0589027485537
527,33669.79167949406
562,1996.4671062213881
563,1938.9417050401814
564,27960.13753146198
599,1187.4680540192492
600,1108.1813764892634
601,16716.163892677843
636,1979.2055174320449
637,1913.9426829024503
638,27854.028999600265
673,1180.1592496144722
674,1091.3740036015543
675,16702.6758541021
710,0.0
711,0.0
712,0.0
2,1,12,21, 0, 8, 0.00,60.00,WinterDesignDay
525,1192.442741634308
526,1143.18583184216
527,33795.65106370408
562,2203.273095906119
563,2156.171528191005
564,28636.652799066112
599,1377.6220931448158
600,1334.611511231588
601,17264.408967420448
636,2202.4467675060355
637,2152.6800725768812
638,28604.90395597799
673,1381.558991084824
674,1342.2334026559845
675,17270.782663000733
710,0.0
711,0.0
712,0.0
2,1,12,21, 0, 9, 0.00,60.00,WinterDesignDay
525,1114.9155619116839
526,1087.5458835616312
527,33141.71443333543
562,1891.5182058200473
563,1843.874713524313
564,27894.825414764444
599,1165.9020211212708
600,1122.7202620457892
601,16766.89228054349
636,1883.7364639517152
637,1833.4366316223886
638,27825.426791347305
673,1169.5514335800278
674,1130.190509996955
675,16773.59380054617
710,0.0
711,0.0
712,0.0
2,1,12,21, 0,10, 0.00,60.00,WinterDesignDay
525,1216.3187345738568
526,1201.366699256839
527,39910.93747871729
562,2282.0369535763784
563,2234.272960491468
564,33532.44110690272
599,1419.2430156432054
600,1375.9384734337339
601,20163.38026800168
636,2280.5226779876525
637,2230.1257645145624
638,33500.4407867675
673,1422.3614401281777
674,1382.9551632668408
675,20170.55532449514
710,0.0
711,0.0
712,0.0
2,1,12,21, 0,11, 0.00,60.00,WinterDesignDay
525,1255.854279671613
526,1251.4786245274884
527,38145.192457324585
562,1978.0703133769257
563,1930.3878045420306
564,31193.348853108106
599,1226.3716578496553
600,1183.1791920253343
601,18733.00354105307
636,1971.6100054717879
637,1921.271956150067
638,31125.562180706882
673,1228.6767483440353
674,1189.310294021541
675,18738.98999385651
710,0.0
711,0.0
712,0.0
2,1,12,21, 0,12, 0.00,60.00,WinterDesignDay
525,1505.4826174106554
526,1496.6651415209444
527,38110.11961030401
562,2240.314823527333
563,2240.314823527333
564,31934.100780140874
599,1406.9115506149908
600,1406.9115506149908
601,19241.622682982033
636,2241.0403609867694
637,2241.0403609867694
638,31907.064220487984
673,1407.9470637816357
674,1407.9470637816357
675,19244.393719825228
710,0.0
711,0.0
712,0.0
2,1,12,21, 0,13, 0.00,60.00,WinterDesignDay
525,1265.883769613428
526,1261.4234770386386
527,38155.47034678285
562,1990.920917832285
563,1943.1951046976817
564,31205.951074751036
599,1233.76940896761
600,1190.590723638903
601,18739.861868172495
636,1984.427013406821
637,1934.0449442605038
638,31138.13273769313
673,1236.4408784099535
674,1197.0822618673371
675,18746.612102707473
710,0.0
711,0.0
712,0.0
2,1,12,21, 0,14, 0.00,60.00,WinterDesignDay
525,1527.009047849189
526,1518.023319992258
527,40254.08873150058
562,2266.499390110653
563,2218.7463350174294
564,33517.60590862561
599,1408.7164378457564
600,1365.5371291744907
601,20152.823977622724
636,2264.7049776275235
637,2214.295831461762
638,33485.07177379498
673,1412.21326582614
674,1372.8560217949218
675,20160.489078455783
710,0.0
711,0.0
712,0.0
2,1,12,21, 0,15, 0.00,60.00,WinterDesignDay
525,1271.7682842259749
526,1267.2933673864095
527,38168.11929443423
562,1977.344832414221
563,1929.5758371348272
564,31192.25030307255
599,1225.887705226452
600,1182.705451506614
601,18732.092370776616
636,1970.8709531363536
637,1920.4460799441756
638,31124.421166853364
673,1228.3688256230766
674,1189.0113341049248
675,18738.468455689384
710,0.0
711,0.0
712,0.0
2,1,12,21, 0,16, 0.00,60.00,WinterDesignDay
525,1521.6824800072416
526,1512.7254388782906
527,38132.35221463777
562,2239.901552761588
563,2239.901552761588
564,31933.19706194902
599,1406.522575576162
600,1406.522575576162
601,19240.800528522024
636,2240.6204460521462
637,2240.6204460521462
638,31906.145982981874
673,1407.757824255352
674,1407.757824255352
675,19243.980728857685
710,0.0
711,0.0
712,0.0
2,1,12,21, 0,17, 0.00,60.00,WinterDesignDay
525,1275.6816190228217
526,1271.1846784512488
527,38174.52257104381
562,1990.618946612634
563,1942.8391258770798
564,31205.12205866545
599,1233.517993239479
600,1190.3332993184101
601,18739.23848759086
636,1984.1241305889982
637,1933.6886123918555
638,31137.310350096395
673,1236.344112727059
674,1196.9862341936612
675,18746.333286476638
710,0.0
711,0.0
712,0.0
2,1,12,21, 0,18, 0.00,60.00,WinterDesignDay
525,1531.868195521325
526,1522.8015992536782
527,40265.73733186679
562,2266.3092627505293
563,2218.521564302146
564,33517.1237026376
599,1408.5105264758051
600,1365.3231043875055
601,20152.362847697095
636,2264.5126659958873
637,2214.069509136514
638,33484.58645764653
673,1412.1590649739016
674,1372.8005428119438
675,20160.344407864843
710,0.0
711,0.0
712,0.0
2,1,12,21, 0,19, 0.00,60.00,WinterDesignDay
525,1273.137436669911
526,1268.6688513098563
527,38174.440161188766
562,2121.5160097395124
563,2092.1060061453813
564,31358.5883516201
599,1307.3029250305628
600,1267.2756150646503
601,18811.752067515536
636,2112.352339233497
637,2079.1929845868704
638,31277.124627525056
673,1306.6425721246733
674,1262.2398891402347
675,18810.302198625133
710,0.0
711,0.0
712,0.0
2,1,12,21, 0,20, 0.00,60.00,WinterDesignDay
525,1527.4383584095901
526,1518.4781655934094
527,40264.87100694638
562,2451.2666717697875
563,2422.3189065629745
564,33729.96883033538
599,1515.1831847313135
600,1475.3963539517338
601,20261.222165658266
636,2446.60944779887
637,2413.8603508895662
638,33683.11396025297
673,1513.799295951823
674,1469.3209260697602
675,20257.461029925355
710,0.0
711,0.0
712,0.0
2,1,12,21, 0,21, 0.00,60.00,WinterDesignDay
525,1276.6683373357362
526,1272.2233047610828
527,40300.8337186317
562,2195.555633151842
563,2138.363928475242
564,32981.16534416432
599,1324.3328553311314
600,1245.1664808819057
601,19714.09164341992
636,2180.8147297665278
637,2115.9697927274933
638,32878.63471877123
673,1320.3780149040279
674,1231.2888297532902
675,19704.419125137243
710,0.0
711,0.0
712,0.0
2,1,12,21, 0,22, 0.00,60.00,WinterDesignDay
525,1521.6839586999195
526,1512.7796308481402
527,40261.646313530764
562,2455.3971686876175
563,2427.000014525971
564,33738.629886278984
599,1518.1099255833687
600,1478.6496659782522
601,20266.79895987263
636,2450.6981709973807
637,2418.469829858968
638,33691.45086466916
673,1515.5512983976696
674,1470.9811260616086
675,20260.727377414474
710,0.0
711,0.0
712,0.0
2,1,12,21, 0,23, 0.00,60.00,WinterDesignDay
525,1268.2915781411427
526,1263.8882302750196
527,40292.51872691481
562,2198.1823396915056
563,2141.624897180373
564,32987.00204046285
599,1326.1351494836565
600,1247.3725696432628
601,19717.711581043237
636,2183.443596479534
637,2119.2316152364824
638,32884.4851276429
673,1321.27437809086
674,1232.123176643531
675,19706.18089491397
710,0.0
711,0.0
712,0.0
2,1,12,21, 0,24, 0.00,60.00,WinterDesignDay
525,1509.969361723721
526,1501.2082629748593
527,40251.996741915355
562,2457.0077568224756
563,2428.8184954775966
564,33741.991293574785
599,1519.2728083864306
600,1479.9535146814644
601,20269.163098738485
636,2452.328296185688
637,2420.317422122959
638,33694.95646169855
673,1516.2672327709718
674,1471.6920532081106
675,20262.1926830399
710,0.0
711,0.0
712,0.0
1,TUCSON-DAVIS-MONTHAN.AFB_AZ_USA ANN CLG .4% CONDNS DB=>MWB,  33.45,-111.98,  -7.00, 337.00
2,1, 7,21, 0, 1, 0.00,60.00,SummerDesignDay
525,-4991.4423383363455
526,-51033.996360485275
527,-4991.4423383363455
562,-4013.234660766015
563,-39900.16527229959
564,-4013.234660766015
599,-2397.7518270606565
600,-23926.16114721728
601,-2397.7518270606565
636,-4011.662974935387
637,-39905.72270775993
638,-4011.662974935387
673,-2461.754464396737
674,-24068.33520352858
675,-2461.754464396737
710,0.0
711,0.0
712,0.0
2,1, 7,21, 0, 2, 0.00,60.00,SummerDesignDay
525,-5548.15419571716
526,-49444.78570274147
527,-5548.15419571716
562,-4544.271188048261
563,-38753.03522043216
564,-4544.271188048261
599,-2749.0671431823453
600,-23273.951363700045
601,-2749.0671431823453
636,-4542.367261125975
637,-38756.87187513521
638,-4542.367261125975
673,-2826.01613903207
674,-23415.342004754668
675,-2826.01613903207
710,0.0
711,0.0
712,0.0
2,1, 7,21, 0, 3, 0.00,60.00,SummerDesignDay
525,-4436.502465026315
526,-46012.58434790961
527,-4436.502465026315
562,-3492.4723862929186
563,-35845.572526590106
564,-3492.4723862929186
599,-2083.2869523530653
600,-21494.134451975824
601,-2083.2869523530653
636,-3491.1761659674244
637,-35851.04227663495
638,-3491.1761659674244
673,-2093.8524839537013
674,-21541.488479296353
675,-2093.8524839537013
710,0.0
711,0.0
712,0.0
2,1, 7,21, 0, 4, 0.00,60.00,SummerDesignDay
525,-5178.4489077719945
526,-46938.75154709519
527,-5178.4489077719945
562,-4122.954826137099
563,-36640.215431720426
564,-4122.954826137099
599,-2483.4400329278164
600,-21995.006408006495
601,-2483.4400329278164
636,-4123.009429633307
637,-36646.298953734586
638,-4123.009429633307
673,-2529.361762271841
674,-22090.734142077552
675,-2529.361762271841
710,0.0
711,0.0
712,0.0
2,1, 7,21, 0, 5, 0.00,60.00,SummerDesignDay
525,-5373.895033445042
526,-48974.900791767584
527,-5373.895033445042
562,-3962.336146358264
563,-37809.543943691744
564,-3962.336146358264
599,-2326.218405418446
600,-22618.120888932277
601,-2326.218405418446
636,-3965.0953623324513
637,-37819.83323075378
638,-3965.0953623324513
673,-2332.466576483992
674,-22654.404148679943
675,-2332.466576483992
710,0.0
711,0.0
712,0.0
2,1, 7,21, 0, 6, 0.00,60.00,SummerDesignDay
525,-5678.991122092729
526,-49467.77356246477
527,-5678.991122092729
562,-4375.808497553679
563,-38385.13241206942
564,-4375.808497553679
599,-2645.9452938314707
600,-23041.84664703165
601,-2645.9452938314707
636,-4393.91886111633
637,-38413.997447696136
638,-4393.91886111633
673,-2652.875579801834
674,-23081.909887717648
675,-2652.875579801834
710,0.0
711,0.0
712,0.0
2,1, 7,21, 0, 7, 0.00,60.00,SummerDesignDay
525,-3083.132292455961
526,-46931.516269789536
527,-3083.132292455961
562,-2465.200449621921
563,-36556.567562242846
564,-2465.200449621921
599,-1707.748294761903
600,-22362.980007713315
601,-1707.748294761903
636,-2520.6027113281357
637,-36689.0095278688
638,-2520.6027113281357
673,-1509.1063554090667
674,-21971.43965678388
675,-1509.1063554090667
710,0.0
711,0.0
712,0.0
2,1, 7,21, 0, 8, 0.00,60.00,SummerDesignDay
525,-2806.9695671739187
526,-74117.83493424409
527,-2806.9695671739187
562,-2325.7668064881786
563,-57282.80806120363
564,-2325.7668064881786
599,-2011.76653346014
600,-35421.395770286705
601,-2011.76653346014
636,-2361.3352899822517
637,-57384.81234081971
638,-2361.3352899822517
673,-1422.8374891921758
674,-34253.131577781525
675,-1422.8374891921758
710,0.0
711,0.0
712,0.0
2,1, 7,21, 0, 9, 0.00,60.00,SummerDesignDay
525,-2856.6033045065687
526,-82636.22906907407
527,-2856.6033045065687
562,-2472.6741692363253
563,-63979.172577650046
564,-2472.6741692363253
599,-2407.40926180215
600,-39962.77595119126
601,-2407.40926180215
636,-2505.6110454832046
637,-64063.87949631054
638,-2505.6110454832046
673,-1504.3391100167935
674,-38205.898630234326
675,-1504.3391100167935
710,0.0
711,0.0
712,0.0
2,1, 7,21, 0,10, 0.00,60.00,SummerDesignDay
525,-2958.2627767065023
526,-80787.07265846506
527,-2958.2627767065023
562,-2683.190541507333
563,-62846.976379813044
564,-2683.190541507333
599,-2619.559585078085
600,-39429.23619849819
601,-2619.559585078085
636,-2710.975387447763
637,-62913.613349488674
638,-2710.975387447763
673,-1632.9988543506688
674,-37541.00023482521
675,-1632.9988543506688
710,0.0
711,0.0
712,0.0
2,1, 7,21, 0,11, 0.00,60.00,SummerDesignDay
525,-3074.334374120699
526,-66352.7861944454
527,-3074.334374120699
562,-2906.1823285344813
563,-52159.52239242138
564,-2906.1823285344813
599,-2519.7171438911964
600,-32674.59302167312
601,-2519.7171438911964
636,-2919.8878304190657
637,-52191.81308639859
638,-2919.8878304190657
673,-1773.1652946732838
674,-31218.391195637367
675,-1773.1652946732838
710,0.0
711,0.0
712,0.0
2,1, 7,21, 0,12, 0.00,60.00,SummerDesignDay
525,-3185.730771491506
526,-51893.78274092538
527,-3185.730771491506
562,-3110.2548165839617
563,-41418.64152052996
564,-3110.2548165839617
599,-2355.0132079994987
600,-25757.373830745302
601,-2355.0132079994987
636,-3107.4795024811156
637,-41415.221238847815
638,-3107.4795024811156
673,-1889.6639935445528
674,-24843.255833547704
675,-1889.6639935445528
710,0.0
711,0.0
712,0.0
2,1, 7,21, 0,13, 0.00,60.00,SummerDesignDay
525,-3280.7583767758783
526,-37389.53745331914
527,-3280.7583767758783
562,-3285.023341840622
563,-30606.520691605863
564,-3285.023341840622
599,-2322.0990193372345
600,-19070.252644631502
601,-2322.0990193372345
636,-3263.3779076063583
637,-30566.224304561834
638,-3263.3779076063583
673,-1987.053827634357
674,-18417.927251010886
675,-1987.053827634357
710,0.0
711,0.0
712,0.0
2,1, 7,21, 0,14, 0.00,60.00,SummerDesignDay
525,-3349.03196428036
526,-24930.50743241668
527,-3349.03196428036
562,-3424.257736627791
563,-21315.732634604385
564,-3424.257736627791
599,-2302.512165977853
600,-13359.752703249129
601,-2302.512165977853
636,-3387.2951645593653
637,-21244.01453649926
638,-3387.2951645593653
673,-2070.799103181466
674,-12905.046629481914
675,-2070.799103181466
710,0.0
711,0.0
712,0.0
2,1, 7,21, 0,15, 0.00,60.00,SummerDesignDay
525,-3384.4101787391423
526,-29236.76775836827
527,-3384.4101787391423
562,-3485.8624394224667
563,-24633.233487573114
564,-3485.8624394224667
599,-2301.6862671822455
600,-15250.151441976283
601,-2301.6862671822455
636,-3467.598215342356
637,-24594.323296808627
638,-3467.598215342356
673,-2335.937405406507
674,-15254.444479578657
675,-2335.937405406507
710,0.0
711,0.0
712,0.0
2,1, 7,21, 0,16, 0.00,60.00,SummerDesignDay
525,-3402.805928523919
526,-44014.7749689864
527,-3402.805928523919
562,-3516.4402610213474
563,-35859.310479022985
564,-3516.4402610213474
599,-2276.260622801789
600,-21829.978472747847
601,-2276.260622801789
636,-3491.9941382572106
637,-35815.912328003695
638,-3491.9941382572106
673,-2768.777219048983
674,-22619.718941379197
675,-2768.777219048983
710,0.0
711,0.0
712,0.0
2,1, 7,21, 0,17, 0.00,60.00,SummerDesignDay
525,-3393.986491345821
526,-56624.67990613362
527,-3393.986491345821
562,-3486.483768137446
563,-45388.80621645027
564,-3486.483768137446
599,-2218.417815109742
600,-27406.86255942175
601,-2218.417815109742
636,-3448.3642976931624
637,-45319.972066228336
638,-3448.3642976931624
673,-3033.201542220569
674,-28758.41079754716
675,-3033.201542220569
710,0.0
711,0.0
712,0.0
2,1, 7,21, 0,18, 0.00,60.00,SummerDesignDay
525,-3335.791527811411
526,-64927.11054403163
527,-3335.791527811411
562,-3382.47800020929
563,-51584.58036649446
564,-3382.47800020929
599,-2126.700278476256
600,-31025.38793251938
601,-2126.700278476256
636,-3351.8449311365334
637,-51526.98241541482
638,-3351.8449311365334
673,-3027.6236949845684
674,-32564.49221106993
675,-3027.6236949845684
710,0.0
711,0.0
712,0.0
2,1, 7,21, 0,19, 0.00,60.00,SummerDesignDay
525,-3255.9593825720585
526,-73166.19572722033
527,-3255.9593825720585
562,-3212.8335802378374
563,-57649.56796884872
564,-3212.8335802378374
599,-2006.8451307662706
600,-34588.560169472265
601,-2006.8451307662706
636,-3238.9650452645706
637,-57699.802455757126
638,-3238.9650452645706
673,-2730.6580519271156
674,-35893.24274069677
675,-2730.6580519271156
710,0.0
711,0.0
712,0.0
2,1, 7,21, 0,20, 0.00,60.00,SummerDesignDay
525,-6017.041393977704
526,-83797.37842006337
527,-6017.041393977704
562,-5616.320911747632
563,-65873.28568076993
564,-5616.320911747632
599,-3352.352780377514
600,-39366.26549394551
601,-3352.352780377514
636,-5694.127651373274
637,-65993.13749892953
638,-5694.127651373274
673,-4074.450552002563
674,-40470.00813111825
675,-4074.450552002563
710,0.0
711,0.0
712,0.0
2,1, 7,21, 0,21, 0.00,60.00,SummerDesignDay
525,-6934.001146196194
526,-69966.8231337368
527,-6934.001146196194
562,-6273.8967662700425
563,-55266.93837614136
564,-6273.8967662700425
599,-3820.095442600954
600,-33146.615438981244
601,-3820.095442600954
636,-6323.539328582017
637,-55353.120496483905
638,-6323.539328582017
673,-4336.117006212221
674,-33937.0690831998
675,-4336.117006212221
710,0.0
711,0.0
712,0.0
2,1, 7,21, 0,22, 0.00,60.00,SummerDesignDay
525,-5503.672194797799
526,-55618.79358466781
527,-5503.672194797799
562,-4755.190556883289
563,-43731.16438706423
564,-4755.190556883289
599,-2881.1925746982565
600,-26228.08321326574
601,-2881.1925746982565
636,-4776.701209924978
637,-43773.145331351225
638,-4776.701209924978
673,-3142.8842538559566
674,-26692.478135975853
675,-3142.8842538559566
710,0.0
711,0.0
712,0.0
2,1, 7,21, 0,23, 0.00,60.00,SummerDesignDay
525,-5850.443255773163
526,-51987.797136752975
527,-5850.443255773163
562,-5038.8627183723
563,-41084.532174149674
564,-5038.8627183723
599,-3076.5387287031517
600,-24713.48001088829
601,-3076.5387287031517
636,-5047.400070820612
637,-41105.98319336327
638,-5047.400070820612
673,-3266.0289258112302
674,-25022.914189311403
675,-3266.0289258112302
710,0.0
711,0.0
712,0.0
2,1, 7,21, 0,24, 0.00,60.00,SummerDesignDay
525,-4677.311015100896
526,-46328.76325796178
527,-4677.311015100896
562,-3832.6297811156405
563,-36313.35908553468
564,-3832.6297811156405
599,-2312.0688793238164
600,-21816.018437734627
601,-2312.0688793238164
636,-3835.927594868868
637,-36330.565214886934
638,-3835.927594868868
673,-2378.4467547804593
674,-21931.71922701655
675,-2378.4467547804593
710,0.0
711,0.0
712,0.0
1,Phoenix Sky Harbor Intl Ap AZ USA TMY3 WMO#=722780,  33.45,-111.98,  -7.00, 337.00
2,1, 1, 1, 0, 1, 0.00,60.00,Holiday
525,0.0
526,-16924.38292399501
527,19566.828108357684
562,0.0
563,-11774.828261370923
564,15221.943813641416
599,0.0
600,-5947.734825531011
601,10372.542144987454
636,0.0
637,-9228.814086752482
638,18275.40331607203
673,0.0
674,-5981.802345011013
675,10181.256427128661
710,0.0
711,0.0
712,0.0
2,1, 1, 1, 0, 2, 0.00,60.00,Holiday
525,0.0
526,-20619.894826700205
527,25788.011242492892
562,0.0
563,-15015.560387022198
564,20530.059557507175
599,0.0
600,-7636.746435597996
601,13819.876431860865
636,0.0
637,-11867.786789342807
638,24233.73480196069
673,0.0
674,-7702.846136723507
675,13654.2421561952
710,0.0
711,0.0
712,0.0
2,1, 1, 1, 0, 3, 0.00,60.00,Holiday
525,0.0
526,-13578.369044206227
527,17794.277437149784
562,0.0
563,-9744.464205517144
564,14459.381394648852
599,0.0
600,-5110.164024694772
601,9830.812554709051
636,0.0
637,-7957.911544583717
638,17109.781703445515
673,0.0
674,-5160.846595227728
675,9756.526812124508
710,0.0
711,0.0
712,0.0
2,1, 1, 1, 0, 4, 0.00,60.00,Holiday
525,0.0
526,-13276.743952738945
527,18064.767699288048
562,0.0
563,-9431.711807003094
564,14729.37816424176
599,0.0
600,-5005.163313449425
601,9956.875594282326
636,0.0
637,-7801.653646558098
638,17207.85339731979
673,0.0
674,-5051.936804023583
675,9897.760776772559
710,0.0
711,0.0
712,0.0
2,1, 1, 1, 0, 5, 0.00,60.00,Holiday
525,0.0
526,-13024.638566659944
527,18324.539917292892
562,0.0
563,-9124.336944396622
564,14942.2711746802
599,0.0
600,-4884.285068388857
601,10030.863653412867
636,0.0
637,-7618.4387165894805
638,17218.030148457747
673,0.0
674,-4927.567453217881
675,9982.550361004045
710,0.0
711,0.0
712,0.0
2,1, 1, 1, 0, 6, 0.00,60.00,Holiday
525,0.0
526,-12789.365061151795
527,18573.47456653978
562,0.0
563,-8883.984621749152
564,15669.180928374322
599,0.0
600,-4753.35440732927
601,10358.964461954622
636,0.0
637,-7464.958339470814
638,17748.57167148722
673,0.0
674,-4794.578573118846
675,10321.512819364858
710,0.0
711,0.0
712,0.0
2,1, 1, 1, 0, 7, 0.00,60.00,Holiday
525,0.0
526,-12565.998639146404
527,18805.463324029613
562,0.0
563,-8645.672088340727
564,16625.729734654877
599,0.0
600,-4584.927415793608
601,10782.014091957335
636,0.0
637,-7280.8922407595865
638,18498.35470342518
673,0.0
674,-4620.152926143945
675,10744.362666500985
710,0.0
711,0.0
712,0.0
2,1, 1, 1, 0, 8, 0.00,60.00,Holiday
525,0.0
526,-12362.732099546678
527,19032.409555796472
562,0.0
563,-8407.160215479202
564,17059.986859180735
599,0.0
600,-4555.070126606261
601,11018.315047711774
636,0.0
637,-7104.521350662076
638,18905.389958303353
673,0.0
674,-4487.564431878951
675,11040.537289896749
710,0.0
711,0.0
712,0.0
2,1, 1, 1, 0, 9, 0.00,60.00,Holiday
525,0.0
526,-26978.987442920934
527,42051.510275941306
562,0.0
563,-19589.534519513563
564,34332.87188354135
599,0.0
600,-11334.689973707995
601,21031.280367185638
636,0.0
637,-15082.718598151456
638,39348.275887396216
673,0.0
674,-9443.752801571167
675,22991.174038847952
710,0.0
711,0.0
712,0.0
2,1, 1, 1, 0,10, 0.00,60.00,Holiday
525,0.0
526,-52025.03217330919
527,77582.95272188161
562,0.0
563,-43340.545772294
564,56596.863939701376
599,0.0
600,-24691.486987028995
601,35030.47601915131
636,0.0
637,-28740.47088970293
638,70750.30219559658
673,0.0
674,-17886.090211985607
675,41475.3985268638
710,0.0
711,0.0
712,0.0
2,1, 1, 1, 0,11, 0.00,60.00,Holiday
525,0.0
526,-57491.063771546054
527,74386.13768516128
562,0.0
563,-50945.217266496016
564,49664.88230423042
599,0.0
600,-25920.486576260748
601,32952.670062710815
636,0.0
637,-29728.627114594972
638,68711.89995112493
673,0.0
674,-18483.968882049663
675,40351.13283365815
710,0.0
711,0.0
712,0.0
2,1, 1, 1, 0,12, 0.00,60.00,Holiday
525,0.0
526,-47794.3699350756
527,57458.276083565586
562,0.0
563,-46762.65698386292
564,33370.82986939568
599,0.0
600,-20862.050792250884
601,26098.014707598475
636,0.0
637,-25352.229313800326
638,53196.531430486386
673,0.0
674,-15775.157214119992
675,30917.54411873448
710,0.0
711,0.0
712,0.0
2,1, 1, 1, 0,13, 0.00,60.00,Holiday
525,0.0
526,-39055.12672457718
527,43676.987844877694
562,0.0
563,-42208.04006972388
564,21638.21266883929
599,0.0
600,-16642.758013145987
601,19936.816510504977
636,0.0
637,-21022.26264058007
638,39429.54260530066
673,0.0
674,-13393.320153129649
675,22994.641692197463
710,0.0
711,0.0
712,0.0
2,1, 1, 1, 0,14, 0.00,60.00,Holiday
525,0.0
526,-24027.33036764289
527,25076.691910113674
562,0.0
563,-27779.10885213526
564,10996.62711365035
599,0.0
600,-9919.225977939312
601,11348.477149010172
636,0.0
637,-12751.610456549359
638,21811.807276331558
673,0.0
674,-8307.589964257926
675,12751.74529685942
710,0.0
711,0.0
712,0.0
2,1, 1, 1, 0,15, 0.00,60.00,Holiday
525,0.0
526,-24949.36132170592
527,24195.994740130165
562,0.0
563,-28438.66739041555
564,9918.254685649712
599,0.0
600,-10094.842197812157
601,11041.274963820768
636,0.0
637,-13572.626530535412
638,21190.576859500492
673,0.0
674,-9692.088435419899
675,11830.617361701225
710,0.0
711,0.0
712,0.0
2,1, 1, 1, 0,16, 0.00,60.00,Holiday
525,0.0
526,-52497.18710623372
527,49000.078667880654
562,0.0
563,-54663.61253814755
564,21745.38888681588
599,0.0
600,-21490.672697610684
601,23045.673617311968
636,0.0
637,-30071.68614712426
638,44540.30310144412
673,0.0
674,-21947.50335866574
675,23369.276578594236
710,0.0
711,0.0
712,0.0
2,1, 1, 1, 0,17, 0.00,60.00,Holiday
525,0.0
526,-39332.08578045411
527,35956.88068140571
562,0.0
563,-39133.43733635538
564,17139.685636299208
599,0.0
600,-15801.402889368217
601,17001.646499492304
636,0.0
637,-22586.8297127679
638,32324.989608423755
673,0.0
674,-17671.059885670846
675,16149.707395652682
710,0.0
711,0.0
712,0.0
2,1, 1, 1, 0,18, 0.00,60.00,Holiday
525,0.0
526,-55155.68543035695
527,50021.5748514372
562,0.0
563,-50681.00568889411
564,27594.91782332845
599,0.0
600,-21868.281263669764
601,24549.46845011669
636,0.0
637,-32024.495785197403
638,46243.84580242789
673,0.0
674,-24270.928482704247
675,22934.598264001106
710,0.0
711,0.0
712,0.0
2,1, 1, 1, 0,19, 0.00,60.00,Holiday
525,0.0
526,-50693.30013483609
527,46822.56788156318
562,0.0
563,-43170.745020603455
564,28337.499299270134
599,0.0
600,-19628.626000472334
601,23398.171927130115
636,0.0
637,-29073.326025255392
638,43588.40827453165
673,0.0
674,-21332.148083862885
675,22358.064491510388
710,0.0
711,0.0
712,0.0
2,1, 1, 1, 0,20, 0.00,60.00,Holiday
525,0.0
526,-30863.70119337166
527,29330.701358285874
562,0.0
563,-24314.87190171979
564,18939.37015358522
599,0.0
600,-11455.875262050855
601,14664.15440714809
636,0.0
637,-17110.03269411693
638,26956.330532744916
673,0.0
674,-12194.6372293873
675,14164.081474338438
710,0.0
711,0.0
712,0.0
2,1, 1, 1, 0,21, 0.00,60.00,Holiday
525,0.0
526,-17235.106880926
527,16900.00295069165
562,0.0
563,-12537.89548792565
564,11188.73254467792
599,0.0
600,-5992.280488012413
601,8181.408759704165
636,0.0
637,-9050.87904360892
638,14897.043537620042
673,0.0
674,-6248.301495812947
675,7938.901171490099
710,0.0
711,0.0
712,0.0
2,1, 1, 1, 0,22, 0.00,60.00,Holiday
525,0.0
526,-17048.78810900668
527,17146.994240074062
562,0.0
563,-12157.96434513294
564,12015.191378240435
599,0.0
600,-5743.656572172931
601,8319.35523506094
636,0.0
637,-8744.459931325002
638,15023.214445837564
673,0.0
674,-5978.572740108092
675,8192.336088212729
710,0.0
711,0.0
712,0.0
2,1, 1, 1, 0,23, 0.00,60.00,Holiday
525,0.0
526,-16863.80395475018
527,17365.61357888157
562,0.0
563,-11505.484919494944
564,12762.918367323064
599,0.0
600,-5547.260043893967
601,8744.24751191408
636,0.0
637,-8196.24393641135
638,15082.465595070995
673,0.0
674,-5616.65947559828
675,8501.513090693303
710,0.0
711,0.0
712,0.0