Program Version,EnergyPlus, Version 8.6.0-198c6a3cff, YMD=2019.03.03 18:57
1,5,Environment Title[],Latitude[deg],Longitude[deg],Time Zone[],Elevation[m]
2,6,Day of Simulation[],Month[],Day of Month[],DST Indicator[1=yes 0=no],Hour[],StartMinute[],EndMinute[],DayType
3,3,Cumulative Day of Simulation[],Month[],Day of Month[],DST Indicator[1=yes 0=no],DayType  ! When Daily Report Variables Requested
4,2,Cumulative Days of Simulation[],Month[]  ! When Monthly Report Variables Requested
5,1,Cumulative Days of Simulation[] ! When Run Period Report Variables Requested
525,1,CORE_ZN,Zone Predicted Sensible Load to Setpoint Heat Transfer Rate [W] !Hourly
526,1,CORE_ZN,Zone Predicted Sensible Load to Heating Setpoint Heat Transfer Rate [W] !Hourly
527,1,CORE_ZN,Zone Predicted Sensible Load to Cooling Setpoint Heat Transfer Rate [W] !Hourly
562,1,PERIMETER_ZN_1,Zone Predicted Sensible Load to Setpoint Heat Transfer Rate [W] !Hourly
563,1,PERIMETER_ZN_1,Zone Predicted Sensible Load to Heating Setpoint Heat Transfer Rate [W] !Hourly
564,1,PERIMETER_ZN_1,Zone Predicted Sensible Load to Cooling Setpoint Heat Transfer Rate [W] !Hourly
599,1,PERIMETER_ZN_2,Zone Predicted Sensible Load to Setpoint Heat Transfer Rate [W] !Hourly
600,1,PERIMETER_ZN_2,Zone Predicted Sensible Load to Heating Setpoint Heat Transfer Rate [W] !Hourly
601,1,PERIMETER_ZN_2,Zone Predicted Sensible Load to Cooling Setpoint Heat Transfer Rate [W] !Hourly
636,1,PERIMETER_ZN_3,Zone Predicted Sensible Load to Setpoint Heat Transfer Rate [W] !Hourly
637,1,PERIMETER_ZN_3,Zone Predicted Sensible Load to Heating Setpoint Heat Transfer Rate [W] !Hourly
638,1,PERIMETER_ZN_3,Zone Predicted Sensible Load to Cooling Setpoint Heat Transfer Rate [W] !Hourly
673,1,PERIMETER_ZN_4,Zone Predicted Sensible Load to Setpoint Heat Transfer Rate [W] !Hourly
674,1,PERIMETER_ZN_4,Zone Predicted Sensible Load to Heating Setpoint Heat Transfer Rate [W] !Hourly
675,1,PERIMETER_ZN_4,Zone Predicted Sensible Load to Cooling Setpoint Heat Transfer Rate [W] !Hourly
710,1,ATTIC,Zone Predicted Sensible Load to Setpoint Heat Transfer Rate [W] !Hourly
711,1,ATTIC,Zone Predicted Sensible Load to Heating Setpoint Heat Transfer Rate [W] !Hourly
712,1,ATTIC,Zone Predicted Sensible Load to Cooling Setpoint Heat Transfer Rate [W] !Hourly
End of Data Dictionary
1,BUFFALO.NIAGARA.INTL.AP_NY_USA ANN HTG 99.6% CONDNS DB,  41.98, -87.92,  -6.00, 201.00
2,1, 1,21, 0, 1, 0.00,60.00,WinterDesignDay
525,1640.1991119122802
526,1640.1991119122802
527,45630.41945106701
562,3400.150047901232
563,3383.677212762241
564,38161.48664063328
599,2360.6664307612305
600,2355.2121399862262
601,23511.18541122938
636,3892.663228856969
637,3890.742494214781
638,39226.13302319381
673,2214.939563451642
674,2211.3135455578254
675,23122.898636669193
710,0.0
711,0.0
712,0.0
2,1, 1,21, 0, 2, 0.00,60.00,WinterDesignDay
525,1248.3140460784841
526,1248.3140460784841
527,45596.571008612664
562,4009.3477378806497
563,3993.0023407232966
564,39157.808449326236
599,2591.752678588829
600,2587.378503293689
601,23724.34600065048
636,4257.7964530507425
637,4257.75914154681
638,39558.44440138166
673,2598.9308928383207
674,2595.2420159232947
675,23737.666332356293
710,0.0
711,0.0
712,0.0
2,1, 1,21, 0, 3, 0.00,60.00,WinterDesignDay
525,1680.85309060224
526,1680.85309060224
527,47923.452664493845
562,3695.7227153353615
563,3663.2559663474954
564,40169.55807955865
599,2401.8805718844483
600,2394.702183619373
601,24330.91462966874
636,3972.6310672066707
637,3972.6310672066707
638,40638.455849879974
673,2402.0741005510176
674,2394.624841303
675,24332.041591296907
710,0.0
711,0.0
712,0.0
2,1, 1,21, 0, 4, 0.00,60.00,WinterDesignDay
525,1239.6038175655679
526,1239.6038175655679
527,45586.76234929592
562,4012.128389954067
563,3996.010405700555
564,39162.33203864382
599,2601.926963642297
600,2598.716855074286
601,23743.09415493249
636,4273.19963294349
637,4273.19963294349
638,39585.11193884544
673,2601.168094716775
674,2597.4133390492298
675,23741.207678041
710,0.0
711,0.0
712,0.0
2,1, 1,21, 0, 5, 0.00,60.00,WinterDesignDay
525,1671.669871583529
526,1671.669871583529
527,47919.45804750478
562,3698.5481070869287
563,3666.5265996089006
564,40173.75034406749
599,2407.8913042311024
600,2401.8363474434013
601,24341.210071412526
636,3981.252231840475
637,3981.252231840475
638,40651.71722277394
673,2403.770496067239
674,2396.211514757092
675,24334.42579317962
710,0.0
711,0.0
712,0.0
2,1, 1,21, 0, 6, 0.00,60.00,WinterDesignDay
525,1233.325775752209
526,1233.325775752209
527,45583.33650823247
562,4014.495547700004
563,3998.581566071782
564,39166.26174184186
599,2605.031741531913
600,2602.125379244966
601,23748.495203239592
636,4277.750699889717
637,4277.750699889717
638,39592.52976350997
673,2602.7471228023537
674,2598.9462786783665
675,23743.7305501308
710,0.0
711,0.0
712,0.0
2,1, 1,21, 0, 7, 0.00,60.00,WinterDesignDay
525,1663.3522820198061
526,1663.3522820198061
527,47916.902651731965
562,3700.7843983878865
563,3669.122934186524
564,40177.11840192127
599,2410.3393510561195
600,2404.6966357050146
601,24345.090279811844
636,3984.685047319819
637,3984.685047319819
638,40656.585790836034
673,2404.9943217551
674,2397.3568045826314
675,24336.15099705091
710,0.0
711,0.0
712,0.0
2,1, 1,21, 0, 8, 0.00,60.00,WinterDesignDay
525,1126.9357830778188
526,1126.9357830778188
527,38639.260102737906
562,2619.5918471257723
563,2619.5918471257723
564,32294.84290902701
599,1688.7674872166233
600,1688.7674872166233
601,19537.787038614013
636,2821.753531651341
637,2821.753531651341
638,32577.52240587153
673,1688.0932571195242
674,1688.0932571195242
675,19535.188852488285
710,0.0
711,0.0
712,0.0
2,1, 1,21, 0, 9, 0.00,60.00,WinterDesignDay
525,1459.5553455151567
526,1459.5553455151567
527,40877.24003420146
562,2396.490283935397
563,2396.490283935397
564,33228.587834701524
599,1540.7838911241588
600,1540.7838911241588
601,20029.951102205927
636,2591.9432061840853
637,2591.9432061840853
638,33458.06895490079
673,1537.0513873066911
674,1537.0513873066911
675,20024.047538816263
710,0.0
711,0.0
712,0.0
2,1, 1,21, 0,10, 0.00,60.00,WinterDesignDay
525,1142.6648355716914
526,1142.6648355716914
527,38633.600598825324
562,2597.9983624583615
563,2597.9983624583615
564,32250.894297454117
599,1670.8035538172187
600,1670.8035538172187
601,19493.93238224133
636,2805.4478787057183
637,2805.4478787057183
638,32541.18175384769
673,1667.9298383685964
674,1667.9298383685964
675,19488.79959171093
710,0.0
711,0.0
712,0.0
2,1, 1,21, 0,11, 0.00,60.00,WinterDesignDay
525,1470.6990433718922
526,1470.6990433718922
527,40869.35487785335
562,2381.396812191339
563,2381.396812191339
564,33203.25345992169
599,1526.6258804084312
600,1526.6258804084312
601,19998.64192907239
636,2577.3221678481123
637,2577.3221678481123
638,33434.03919701344
673,1522.0001625331759
674,1522.0001625331759
675,19991.375676749834
710,0.0
711,0.0
712,0.0
2,1, 1,21, 0,12, 0.00,60.00,WinterDesignDay
525,1154.7776782398084
526,1154.7776782398084
527,38636.473510077485
562,2589.5308350263776
563,2589.5308350263776
564,32234.99377678554
599,1664.2326584864331
600,1664.2326584864331
601,19480.179582276152
636,2797.3471447708193
637,2797.3471447708193
638,32526.02427880047
673,1661.1326447043741
674,1661.1326447043741
675,19474.58854374971
710,0.0
711,0.0
712,0.0
2,1, 1,21, 0,13, 0.00,60.00,WinterDesignDay
525,1498.637744064354
526,1498.637744064354
527,40877.83493123852
562,2375.33166163128
563,2375.33166163128
564,33191.89756926734
599,1521.4220759222783
600,1521.4220759222783
601,19987.745596527286
636,2571.6045621822304
637,2571.6045621822304
638,33423.08501549324
673,1516.5972115393633
674,1516.5972115393633
675,19980.081858079822
710,0.0
711,0.0
712,0.0
2,1, 1,21, 0,14, 0.00,60.00,WinterDesignDay
525,1168.2481252309647
526,1168.2481252309647
527,38644.439382424614
562,2585.077348164796
563,2585.077348164796
564,32226.32356898519
599,1661.0030095300583
600,1661.0030095300583
601,19473.631438338034
636,2793.2169777463932
637,2793.2169777463932
638,32517.903749729867
673,1657.7544283893073
674,1657.7544283893073
675,19467.755057804243
710,0.0
711,0.0
712,0.0
2,1, 1,21, 0,15, 0.00,60.00,WinterDesignDay
525,1485.2463816652898
526,1485.2463816652898
527,40866.43278782296
562,2371.5212785121143
563,2371.5212785121143
564,33184.41481366233
599,1518.3644124900675
600,1518.3644124900675
601,19981.48276596222
636,2568.0728036894657
637,2568.0728036894657
638,33415.90668779823
673,1513.399340988504
674,1513.399340988504
675,19973.544962564705
710,0.0
711,0.0
712,0.0
2,1, 1,21, 0,16, 0.00,60.00,WinterDesignDay
525,1151.598776379153
526,1151.598776379153
527,38632.15569452697
562,2581.9282865908276
563,2581.9282865908276
564,32220.25043151809
599,1658.7720597794412
600,1658.7720597794412
601,19469.158462752952
636,2790.314777558069
637,2790.314777558069
638,32512.21540973065
673,1655.4132193001985
674,1655.4132193001985
675,19463.06371323867
710,0.0
711,0.0
712,0.0
2,1, 1,21, 0,17, 0.00,60.00,WinterDesignDay
525,1490.0100975650055
526,1490.0100975650055
527,40871.330453269366
562,2368.6791787523102
563,2368.6791787523102
564,33179.06359401985
599,1516.0977100553891
600,1516.0977100553891
601,19976.859871560464
636,2565.4308577534084
637,2565.4308577534084
638,33410.69518760542
673,1511.023738458695
674,1511.023738458695
675,19968.693733581193
710,0.0
711,0.0
712,0.0
2,1, 1,21, 0,18, 0.00,60.00,WinterDesignDay
525,1145.345296475182
526,1145.345296475182
527,38627.77823280888
562,2579.5573403758212
563,2579.5573403758212
564,32215.666540366325
599,1657.094617578209
600,1657.094617578209
601,19465.75159894145
636,2788.135248214154
637,2788.135248214154
638,32507.931464959052
673,1653.6529315594935
674,1653.6529315594935
675,19459.489189498403
710,0.0
711,0.0
712,0.0
2,1, 1,21, 0,19, 0.00,60.00,WinterDesignDay
525,1584.9297511800469
526,1584.9297511800469
527,45522.393860035205
562,3438.3239907677466
563,3417.8059543444056
564,37979.878368911064
599,2231.565982882162
600,2226.5746996461535
601,22964.594299641798
636,3687.0490763678513
637,3683.063507499684
638,38345.198862844416
673,2230.896025833602
674,2228.101089440734
675,22963.355238719538
710,0.0
711,0.0
712,0.0
2,1, 1,21, 0,20, 0.00,60.00,WinterDesignDay
525,1251.6027498656586
526,1251.6027498656586
527,45578.62572697311
562,3975.090274131482
563,3955.1181634631107
564,39096.71449145731
599,2579.0358122759885
600,2573.7078793224696
601,23702.840339187736
636,4241.540330603391
637,4239.945887996893
638,39530.7130949583
673,2577.6023457337374
674,2574.4817445081962
675,23701.261389728763
710,0.0
711,0.0
712,0.0
2,1, 1,21, 0,21, 0.00,60.00,WinterDesignDay
525,1697.9681059523693
526,1697.9681059523693
527,47919.62825672828
562,3672.071417667938
563,3635.388009724477
564,40131.23060372477
599,2391.9058870146687
600,2383.0604704410266
601,24315.215834330647
636,3959.6491787379164
637,3959.3524569540004
638,40620.035436521866
673,2389.9185511664573
674,2383.1966097754917
675,24313.323476480233
710,0.0
711,0.0
712,0.0
2,1, 1,21, 0,22, 0.00,60.00,WinterDesignDay
525,1248.4287196275302
526,1248.4287196275302
527,45587.6751301781
562,3997.250726546095
563,3979.7421886742904
564,39136.94876664403
599,2594.7977112357808
600,2590.953806451674
601,23731.071699231707
636,4263.461056537898
637,4263.461056537898
638,39569.67110743849
673,2592.0330126323956
674,2588.537272461838
675,23726.313218569045
710,0.0
711,0.0
712,0.0
2,1, 1,21, 0,23, 0.00,60.00,WinterDesignDay
525,1679.1332337229117
526,1679.1332337229117
527,47917.37703233844
562,3685.684459247243
563,3651.5285112119377
564,40153.96890717116
599,2401.496715732377
600,2394.4064652789443
601,24331.363202935478
636,3972.7819647818683
637,3972.7819647818683
638,40640.05797118456
673,2397.216426805755
674,2390.0703347359836
675,24324.985524410167
710,0.0
711,0.0
712,0.0
2,1, 1,21, 0,24, 0.00,60.00,WinterDesignDay
525,1237.9341768242532
526,1237.9341768242532
527,45583.34493377568
562,4004.723432630512
563,3987.9433381127715
564,39149.89328112457
599,2600.0413471725574
600,2596.701606348584
601,23740.149857414508
636,4270.880084463724
637,4270.880084463724
638,39581.7012344814
673,2596.8378603170027
674,2593.2079609030206
675,23734.255649006565
710,0.0
711,0.0
712,0.0
1,BUFFALO.NIAGARA.INTL.AP_NY_USA ANN CLG .4% CONDNS DB=>MWB,  41.98, -87.92,  -6.00, 201.00
2,1, 7,21, 0, 1, 0.00,60.00,SummerDesignDay
525,-3993.3491118924685
526,-45084.91124827567
527,-3993.3491118924685
562,-2920.5289130481183
563,-34953.04134986195
564,-2920.5289130481183
599,-1676.148710353702
600,-20898.88148219811
601,-1676.148710353702
636,-2905.86469978491
637,-34849.07268037434
638,-2905.86469978491
673,-1780.5099420053914
674,-21138.427988616048
675,-1780.5099420053914
710,0.0
711,0.0
712,0.0
2,1, 7,21, 0, 2, 0.00,60.00,SummerDesignDay
525,-4235.32257050553
526,-43256.4093124074
527,-4235.32257050553
562,-3106.730723895062
563,-33397.98829657613
564,-3106.730723895062
599,-1839.6928957511464
600,-20003.016290810545
601,-1839.6928957511464
636,-3071.7656206614265
637,-33307.024768454845
638,-3071.7656206614265
673,-1939.2878343671766
674,-20216.481283243065
675,-1939.2878343671766
710,0.0
711,0.0
712,0.0
2,1, 7,21, 0, 3, 0.00,60.00,SummerDesignDay
525,-3480.6862407299905
526,-40180.727186336655
527,-3480.6862407299905
562,-2466.652710578713
563,-30930.9937950988
564,-2466.652710578713
599,-1414.263636846108
600,-18485.560381678053
601,-1414.263636846108
636,-2453.826231809737
637,-30880.64450108792
638,-2453.826231809737
673,-1477.2110388175313
674,-18610.87180421272
675,-1477.2110388175313
710,0.0
711,0.0
712,0.0
2,1, 7,21, 0, 4, 0.00,60.00,SummerDesignDay
525,-4204.714150041681
526,-43185.38964339309
527,-4204.714150041681
562,-3013.9644813953964
563,-33215.778462301445
564,-3013.9644813953964
599,-1778.4079185096246
600,-19878.095541087914
601,-1778.4079185096246
636,-2975.165193990133
637,-33116.839323528126
638,-2975.165193990133
673,-1849.6100878492907
674,-20037.2548495619
675,-1849.6100878492907
710,0.0
711,0.0
712,0.0
2,1, 7,21, 0, 5, 0.00,60.00,SummerDesignDay
525,-3456.225402240952
526,-40136.607462511274
527,-3456.225402240952
562,-2402.9279570413296
563,-30813.72036736256
564,-2402.9279570413296
599,-1395.286758514452
600,-18440.055025632057
601,-1395.286758514452
636,-2400.882565799486
637,-30778.792622858247
638,-2400.882565799486
673,-1421.479253709031
674,-18502.150508035684
675,-1421.479253709031
710,0.0
711,0.0
712,0.0
2,1, 7,21, 0, 6, 0.00,60.00,SummerDesignDay
525,-4636.823309227938
526,-52645.15210625669
527,-4636.823309227938
562,-3347.0651265154065
563,-40422.319125148075
564,-3347.0651265154065
599,-2548.1135998241093
600,-25105.929800991533
601,-2548.1135998241093
636,-3401.1228905235153
637,-40556.1577092384
638,-3401.1228905235153
673,-2022.054538991183
674,-24257.680387880202
675,-2022.054538991183
710,0.0
711,0.0
712,0.0
2,1, 7,21, 0, 7, 0.00,60.00,SummerDesignDay
525,-2868.8490202355592
526,-64562.105424570465
527,-2868.8490202355592
562,-2095.503459953092
563,-49635.62199646541
564,-2095.503459953092
599,-2117.0126227992064
600,-31414.025061197724
601,-2117.0126227992064
636,-2098.268203870111
637,-49655.97573004232
638,-2098.268203870111
673,-1232.138951783205
674,-29643.77964618254
675,-1232.138951783205
710,0.0
711,0.0
712,0.0
2,1, 7,21, 0, 8, 0.00,60.00,SummerDesignDay
525,-2498.3182243779443
526,-66470.7996781059
527,-2498.3182243779443
562,-1996.7142198692936
563,-51354.072046118155
564,-1996.7142198692936
599,-2430.496072789503
600,-33305.294135005235
601,-2430.496072789503
636,-1981.6454248179487
637,-51317.87653904449
638,-1981.6454248179487
673,-1209.3131460849038
674,-30685.731144953592
675,-1209.3131460849038
710,0.0
711,0.0
712,0.0
2,1, 7,21, 0, 9, 0.00,60.00,SummerDesignDay
525,-2529.374178957983
526,-71099.36487099502
527,-2529.374178957983
562,-2098.41910059026
563,-55061.149772363286
564,-2098.41910059026
599,-2614.091082496639
600,-35703.46017759991
601,-2614.091082496639
636,-2106.959851445858
637,-55074.040603860725
638,-2106.959851445858
673,-1262.1436086445408
674,-32867.42835268204
675,-1262.1436086445408
710,0.0
711,0.0
712,0.0
2,1, 7,21, 0,10, 0.00,60.00,SummerDesignDay
525,-2588.0931702918247
526,-71291.6706638511
527,-2588.0931702918247
562,-2243.10286874882
563,-55446.74234783897
564,-2243.10286874882
599,-2410.484012264407
600,-35404.73187134309
601,-2410.484012264407
636,-2230.7785081246793
637,-55407.70853664514
638,-2230.7785081246793
673,-1335.2235446005304
674,-33059.399192493634
675,-1335.2235446005304
710,0.0
711,0.0
712,0.0
2,1, 7,21, 0,11, 0.00,60.00,SummerDesignDay
525,-2650.366503908743
526,-53407.20769877725
527,-2650.366503908743
562,-2462.6889601701937
563,-42307.130925349236
564,-2462.6889601701937
599,-2015.7768789164147
600,-26543.047175228116
601,-2015.7768789164147
636,-2337.2895842763905
637,-41978.131549177364
638,-2337.2895842763905
673,-1408.4075035069566
674,-25119.329046884977
675,-1408.4075035069566
710,0.0
711,0.0
712,0.0
2,1, 7,21, 0,12, 0.00,60.00,SummerDesignDay
525,-2704.60394272853
526,-40017.11376630258
527,-2704.60394272853
562,-2684.6035826531042
563,-32562.884823814504
564,-2684.6035826531042
599,-1839.0889372278186
600,-20046.75833060661
601,-1839.0889372278186
636,-2428.848907321099
637,-31926.259009987905
638,-2428.848907321099
673,-1469.6476269183474
674,-19178.222805891855
675,-1469.6476269183474
710,0.0
711,0.0
712,0.0
2,1, 7,21, 0,13, 0.00,60.00,SummerDesignDay
525,-2749.1424806174073
526,-26598.196802999384
527,-2749.1424806174073
562,-2819.334987788621
563,-22600.173214173585
564,-2819.334987788621
599,-1788.5527548930065
600,-13832.622119966944
601,-1788.5527548930065
636,-2504.793703913531
637,-21832.338344005224
638,-2504.793703913531
673,-1507.9789266702282
674,-13177.062996502556
675,-1507.9789266702282
710,0.0
711,0.0
712,0.0
2,1, 7,21, 0,14, 0.00,60.00,SummerDesignDay
525,-2781.376706818126
526,-24436.51813898965
527,-2781.376706818126
562,-2833.7336452118593
563,-20924.736988877125
564,-2833.7336452118593
599,-1758.696869325214
600,-12749.560678114709
601,-1758.696869325214
636,-2559.516302488684
637,-20251.482286135873
638,-2559.516302488684
673,-1662.6248760093058
674,-12488.853940559178
675,-1662.6248760093058
710,0.0
711,0.0
712,0.0
2,1, 7,21, 0,15, 0.00,60.00,SummerDesignDay
525,-2806.5691267258844
526,-33540.83993757386
527,-2806.5691267258844
562,-2774.362750062382
563,-27633.73275774777
564,-2774.362750062382
599,-1727.5669014350497
600,-16746.567436220244
601,-1727.5669014350497
636,-2588.1826721582815
637,-27176.73996704242
638,-2588.1826721582815
673,-2158.2135436810113
674,-17534.589012343167
675,-2158.2135436810113
710,0.0
711,0.0
712,0.0
2,1, 7,21, 0,16, 0.00,60.00,SummerDesignDay
525,-2812.211431328729
526,-47117.9403575839
527,-2812.211431328729
562,-2707.959301116411
563,-37755.77964183821
564,-2707.959301116411
599,-1683.3640981495764
600,-22746.181362558058
601,-1683.3640981495764
636,-2557.3009019657948
637,-37402.63309574208
638,-2557.3009019657948
673,-2638.4304688361112
674,-24525.59803356987
675,-2638.4304688361112
710,0.0
711,0.0
712,0.0
2,1, 7,21, 0,17, 0.00,60.00,SummerDesignDay
525,-2788.7412575454787
526,-56108.00887320759
527,-2788.7412575454787
562,-2628.2227120528646
563,-44431.007366353704
564,-2628.2227120528646
599,-1631.7964263327656
600,-26698.125729264084
601,-1631.7964263327656
636,-2503.589644587991
637,-44135.07289962899
638,-2503.589644587991
673,-2833.7025692979637
674,-28956.76212541168
675,-2833.7025692979637
710,0.0
711,0.0
712,0.0
2,1, 7,21, 0,18, 0.00,60.00,SummerDesignDay
525,-2760.3758343371824
526,-65060.33515338565
527,-2760.3758343371824
562,-2532.326573400404
563,-51061.25606759382
564,-2532.326573400404
599,-1546.8260473961654
600,-30572.98755250163
601,-1546.8260473961654
636,-2443.722083502596
637,-50848.54934146963
638,-2443.722083502596
673,-2716.415729508686
674,-32853.881154594725
675,-2716.415729508686
710,0.0
711,0.0
712,0.0
2,1, 7,21, 0,19, 0.00,60.00,SummerDesignDay
525,-2710.918096554684
526,-64923.82923862125
527,-2710.918096554684
562,-2391.6044770018466
563,-50724.28744578
564,-2391.6044770018466
599,-1457.5924541583365
600,-30356.53404861047
601,-1457.5924541583365
636,-2401.561544950741
637,-50757.643170550764
638,-2401.561544950741
673,-2308.8101325038747
674,-32164.838874426627
675,-2308.8101325038747
710,0.0
711,0.0
712,0.0
2,1, 7,21, 0,20, 0.00,60.00,SummerDesignDay
525,-5032.0714901971205
526,-71316.68045304412
527,-5032.0714901971205
562,-3995.8368657825945
563,-55339.84109552394
564,-3995.8368657825945
599,-2281.695236524679
600,-32974.84821885328
601,-2281.695236524679
636,-4076.0602758191358
637,-55393.72254291625
638,-4076.0602758191358
673,-2977.7778231376456
674,-34149.326192018954
675,-2977.7778231376456
710,0.0
711,0.0
712,0.0
2,1, 7,21, 0,21, 0.00,60.00,SummerDesignDay
525,-5049.136352592907
526,-57839.519933895055
527,-5049.136352592907
562,-4001.9263640324666
563,-44968.6465749102
564,-4001.9263640324666
599,-2395.773968463496
600,-26929.974189127563
601,-2395.773968463496
636,-4015.4098998058785
637,-44966.75393088391
638,-4015.4098998058785
673,-2824.1663691525623
674,-27672.944467467747
675,-2824.1663691525623
710,0.0
711,0.0
712,0.0
2,1, 7,21, 0,22, 0.00,60.00,SummerDesignDay
525,-3917.992684573876
526,-45232.42345067631
527,-3917.992684573876
562,-2942.9832484664944
563,-35069.43163490806
564,-2942.9832484664944
599,-1706.8292825432136
600,-20980.590873805264
601,-1706.8292825432136
636,-2947.517804474639
637,-35057.31485180657
638,-2947.517804474639
673,-1893.9969203930268
674,-21270.64951640438
675,-1893.9969203930268
710,0.0
711,0.0
712,0.0
2,1, 7,21, 0,23, 0.00,60.00,SummerDesignDay
525,-4394.457147579585
526,-43533.32251907867
527,-4394.457147579585
562,-3358.043904482269
563,-33867.51404418832
564,-3358.043904482269
599,-2005.6862027040036
600,-20323.48011046652
601,-2005.6862027040036
636,-3331.9131002958225
637,-33803.90279918706
638,-3331.9131002958225
673,-2202.156108465877
674,-20704.80880745473
675,-2202.156108465877
710,0.0
711,0.0
712,0.0
2,1, 7,21, 0,24, 0.00,60.00,SummerDesignDay
525,-3623.8047011364692
526,-40386.73163076759
527,-3623.8047011364692
562,-2646.285758862623
563,-31241.38991370721
564,-2646.285758862623
599,-1520.7717402975384
600,-18686.843596541894
601,-1520.7717402975384
636,-2639.516482719731
637,-31205.503314937476
638,-2639.516482719731
673,-1633.3844370378738
674,-18892.952377445945
675,-1633.3844370378738
710,0.0
711,0.0
712,0.0
1,Chicago Ohare Intl Ap IL USA TMY3 WMO#=725300,  41.98, -87.92,  -6.00, 201.00
2,1, 1, 1, 0, 1, 0.00,60.00,Holiday
525,0.0
526,-20529.88495282115
527,46996.067807209736
562,0.0
563,-11280.456908555278
564,41109.63916713272
599,0.0
600,-5288.504151788249
601,26130.939372023306
636,0.0
637,-7800.562602479772
638,45072.303090319365
673,0.0
674,-4998.071682422314
675,26420.64291281453
710,0.0
711,0.0
712,0.0
2,1, 1, 1, 0, 2, 0.00,60.00,Holiday
525,0.0
526,-21346.47514375912
527,52857.75780821332
562,0.0
563,-11775.690877000181
564,46849.75659457829
599,0.0
600,-5504.892750945065
601,29767.639131903983
636,0.0
637,-8055.683647382369
638,51310.08878893384
673,0.0
674,-5198.970388358227
675,30082.604300377923
710,0.0
711,0.0
712,0.0
2,1, 1, 1, 0, 3, 0.00,60.00,Holiday
525,0.0
526,-8926.46776909656
527,23405.36127767738
562,0.0
563,-5049.39882717493
564,21596.884979464132
599,0.0
600,-2396.536551243719
601,13852.206603699931
636,0.0
637,-3499.3397842635427
638,23761.814935906423
673,0.0
674,-2264.3950662871835
675,13988.684531310528
710,0.0
711,0.0
712,0.0
2,1, 1, 1, 0, 4, 0.00,60.00,Holiday
525,0.0
526,-8713.08092830968
527,23767.457734475054
562,0.0
563,-4794.078807744562
564,21957.07271396108
599,0.0
600,-2269.592873218407
601,14035.782925935326
636,0.0
637,-3323.9660891549006
638,24031.2531487294
673,0.0
674,-2145.242230204669
675,14167.024529314507
710,0.0
711,0.0
712,0.0
2,1, 1, 1, 0, 5, 0.00,60.00,Holiday
525,0.0
526,-8542.32720636991
527,24066.254304858565
562,0.0
563,-4512.161811552111
564,22479.13505962137
599,0.0
600,-2117.9891181367566
601,14314.884805778405
636,0.0
637,-3109.560266904074
638,24432.19561986852
673,0.0
674,-2001.60699417473
675,14440.332944043714
710,0.0
711,0.0
712,0.0
2,1, 1, 1, 0, 6, 0.00,60.00,Holiday
525,0.0
526,-8396.924475213915
527,24331.573395812058
562,0.0
563,-4288.368283403441
564,22748.400968571343
599,0.0
600,-2006.4216247747572
601,14454.021137235724
636,0.0
637,-2961.67168610937
638,24619.641100521912
673,0.0
674,-1898.5382751924517
675,14570.474112325423
710,0.0
711,0.0
712,0.0
2,1, 1, 1, 0, 7, 0.00,60.00,Holiday
525,0.0
526,-8273.276289185695
527,24573.125562888683
562,0.0
563,-4040.0269457122413
564,23097.56917389722
599,0.0
600,-1874.1288323061406
601,14641.702448038186
636,0.0
637,-2779.988035980707
638,24880.854733949072
673,0.0
674,-1774.4777274464548
675,14749.009016520708
710,0.0
711,0.0
712,0.0
2,1, 1, 1, 0, 8, 0.00,60.00,Holiday
525,0.0
526,-8163.269181128907
527,24790.955299882236
562,0.0
563,-3983.0897772580324
564,23268.98767614843
599,0.0
600,-1899.9256359399503
601,14725.800049830572
636,0.0
637,-2670.4716746955964
638,25031.338851847202
673,0.0
674,-1696.4826124638973
675,14856.2853400176
710,0.0
711,0.0
712,0.0
2,1, 1, 1, 0, 9, 0.00,60.00,Holiday
525,0.0
526,-15831.034377528993
527,47860.613019588105
562,0.0
563,-9795.463296771673
564,41195.6387993195
599,0.0
600,-4975.0229608332975
601,25572.980459660303
636,0.0
637,-5131.773690875145
638,46026.071517891134
673,0.0
674,-3236.2883782057474
675,27239.834292714837
710,0.0
711,0.0
712,0.0
2,1, 1, 1, 0,10, 0.00,60.00,Holiday
525,0.0
526,-23462.52582798999
527,66826.99691231507
562,0.0
563,-18711.821792570623
564,51895.75466384657
599,0.0
600,-8332.238442988268
601,34011.99771095209
636,0.0
637,-7150.194162671243
638,64637.00945765139
673,0.0
674,-4560.949136720131
675,38183.711360033565
710,0.0
711,0.0
712,0.0
2,1, 1, 1, 0,11, 0.00,60.00,Holiday
525,0.0
526,-29331.81219956568
527,70064.29659207333
562,0.0
563,-26086.745797127995
564,50194.91006582829
599,0.0
600,-8675.103888387055
601,36660.56795653876
636,0.0
637,-7786.032140582652
638,69675.16359955377
673,0.0
674,-5151.928878854734
675,40936.9657181493
710,0.0
711,0.0
712,0.0
2,1, 1, 1, 0,12, 0.00,60.00,Holiday
525,0.0
526,-22418.509166485892
527,50048.92240942059
562,0.0
563,-21493.22320968386
564,33538.13526253393
599,0.0
600,-6148.04878662894
601,26697.305813961284
636,0.0
637,-6341.430031127308
638,49859.87437413156
673,0.0
674,-4317.92358666535
675,29129.628431536956
710,0.0
711,0.0
712,0.0
2,1, 1, 1, 0,13, 0.00,60.00,Holiday
525,0.0
526,-11024.985250930544
527,23261.07220835658
562,0.0
563,-8840.050081656636
564,15210.911863712769
599,0.0
600,-2990.4112800711723
601,12399.652263205231
636,0.0
637,-3333.0315186287457
638,22867.480258192532
673,0.0
674,-2307.6854061736994
675,13550.491093534001
710,0.0
711,0.0
712,0.0
2,1, 1, 1, 0,14, 0.00,60.00,Holiday
525,0.0
526,-11246.184091717694
527,23009.878830058948
562,0.0
563,-8488.64260456473
564,16362.482692620613
599,0.0
600,-3051.870411183889
601,12127.700833806952
636,0.0
637,-3693.15002251158
638,22311.528762204038
673,0.0
674,-2524.6316879266687
675,13005.649961683113
710,0.0
711,0.0
712,0.0
2,1, 1, 1, 0,15, 0.00,60.00,Holiday
525,0.0
526,-11448.010601234719
527,23011.30508214973
562,0.0
563,-8051.4380758047155
564,16127.453276683716
599,0.0
600,-3105.2220232687146
601,11861.512470487703
636,0.0
637,-3972.198622340342
638,21737.420231762557
673,0.0
674,-2789.0939295927024
675,12490.095039759326
710,0.0
711,0.0
712,0.0
2,1, 1, 1, 0,16, 0.00,60.00,Holiday
525,0.0
526,-19216.58193415108
527,38245.24117216489
562,0.0
563,-13022.571892224863
564,27336.726811155375
599,0.0
600,-5375.410624895473
601,19874.997912477887
636,0.0
637,-7041.234251688392
638,35699.42989153205
673,0.0
674,-4981.902830756574
675,20452.04728685709
710,0.0
711,0.0
712,0.0
2,1, 1, 1, 0,17, 0.00,60.00,Holiday
525,0.0
526,-19240.08328620281
527,38279.898146146086
562,0.0
563,-12659.25408972628
564,27711.02856533261
599,0.0
600,-5631.685271051551
601,20054.690151442446
636,0.0
637,-7593.916520511347
638,35824.67708281217
673,0.0
674,-5292.101399730237
675,20747.34992556401
710,0.0
711,0.0
712,0.0
2,1, 1, 1, 0,18, 0.00,60.00,Holiday
525,0.0
526,-15348.856114049695
527,30724.06458498583
562,0.0
563,-9895.119075505298
564,22583.358988700962
599,0.0
600,-4586.237861064938
601,16167.177301585436
636,0.0
637,-6285.58181202522
638,28609.385268537055
673,0.0
674,-4307.585186614342
675,16703.38631184063
710,0.0
711,0.0
712,0.0
2,1, 1, 1, 0,19, 0.00,60.00,Holiday
525,0.0
526,-11468.807823331845
527,23136.295108944538
562,0.0
563,-6848.675392021624
564,17392.941541840515
599,0.0
600,-3212.044273241334
601,12089.19058825324
636,0.0
637,-4488.986295089316
638,21377.482201865743
673,0.0
674,-3055.651336233954
675,12594.671568383514
710,0.0
711,0.0
712,0.0
2,1, 1, 1, 0,20, 0.00,60.00,Holiday
525,0.0
526,-11407.713726100847
527,23191.811602634512
562,0.0
563,-6624.7686498568155
564,18873.38590428109
599,0.0
600,-2982.995729068549
601,12408.933737177525
636,0.0
637,-4113.648863382517
638,21304.862582824484
673,0.0
674,-2712.0756780685215
675,12311.962946622252
710,0.0
711,0.0
712,0.0
2,1, 1, 1, 0,21, 0.00,60.00,Holiday
525,0.0
526,-11343.67201268761
527,23231.19875518058
562,0.0
563,-6515.413830517325
564,18966.565512478865
599,0.0
600,-2980.5781059557667
601,12288.99206744977
636,0.0
637,-4213.439410557099
638,21225.898749279553
673,0.0
674,-2783.9873911949326
675,12442.504681332606
710,0.0
711,0.0
712,0.0
2,1, 1, 1, 0,22, 0.00,60.00,Holiday
525,0.0
526,-11304.325055005038
527,23250.279871372826
562,0.0
563,-6314.251724299099
564,18895.362929371768
599,0.0
600,-2973.3955633776873
601,12301.058000777026
636,0.0
637,-4281.187338826998
638,21269.344227050067
673,0.0
674,-2824.5780239799146
675,12602.048668079267
710,0.0
711,0.0
712,0.0
2,1, 1, 1, 0,23, 0.00,60.00,Holiday
525,0.0
526,-11271.815935470748
527,23268.526805196114
562,0.0
563,-6049.930046999888
564,19811.045148524227
599,0.0
600,-2818.265294545891
601,12732.355693366342
636,0.0
637,-4076.201520470368
638,21878.622312295716
673,0.0
674,-2625.344767208036
675,12781.85560128662
710,0.0
711,0.0
712,0.0