Program Version,EnergyPlus, Version 8.6.0-198c6a3cff, YMD=2019.03.03 18:57
1,5,Environment Title[],Latitude[deg],Longitude[deg],Time Zone[],Elevation[m]
2,6,Day of Simulation[],Month[],Day of Month[],DST Indicator[1=yes 0=no],Hour[],StartMinute[],EndMinute[],DayType
3,3,Cumulative Day of Simulation[],Month[],Day of Month[],DST Indicator[1=yes 0=no],DayType  ! When Daily Meters Requested
4,2,Cumulative Days of Simulation[],Month[]  ! When Monthly Meters Requested
5,1,Cumulative Days of Simulation[] ! When Run Period Meters Requested
31,1,Electricity:Facility [J] !Hourly
831,1,ElectricityNet:Facility [J] !Hourly
1043,1,Gas:Facility [J] !Hourly
End of Data Dictionary
1,BUFFALO.NIAGARA.INTL.AP_NY_USA ANN HTG 99.6% CONDNS DB,  41.98, -87.92,  -6.00, 201.00
2,1, 1,21, 0, 1, 0.00,60.00,WinterDesignDay
31,7632505.093623514
831,7632505.093623517
1043,29527330.56144903
2,1, 1,21, 0, 2, 0.00,60.00,WinterDesignDay
31,7253393.141522532
831,7253393.141522534
1043,23848770.377419447
2,1, 1,21, 0, 3, 0.00,60.00,WinterDesignDay
31,7581886.420030485
831,7581886.420030486
1043,30762795.369847597
2,1, 1,21, 0, 4, 0.00,60.00,WinterDesignDay
31,7259948.8574033849
831,7259948.857403386
1043,23864010.412859564
2,1, 1,21, 0, 5, 0.00,60.00,WinterDesignDay
31,7588152.243825573
831,7588152.243825575
1043,30778491.17086187
2,1, 1,21, 0, 6, 0.00,60.00,WinterDesignDay
31,7261603.060867456
831,7261603.060867457
1043,23863494.640525436
2,1, 1,21, 0, 7, 0.00,60.00,WinterDesignDay
31,8781979.21082304
831,8781979.210823045
1043,30780802.615113256
2,1, 1,21, 0, 8, 0.00,60.00,WinterDesignDay
31,6773991.897697696
831,6773991.897697696
1043,17730247.14971014
2,1, 1,21, 0, 9, 0.00,60.00,WinterDesignDay
31,6873192.900051575
831,6873192.900051575
1043,21997344.433026345
2,1, 1,21, 0,10, 0.00,60.00,WinterDesignDay
31,6391226.872089517
831,6391226.872089516
1043,17735371.08294379
2,1, 1,21, 0,11, 0.00,60.00,WinterDesignDay
31,6848689.341346467
831,6848689.341346466
1043,21885345.693391056
2,1, 1,21, 0,12, 0.00,60.00,WinterDesignDay
31,6383813.6300859539
831,6383813.630085953
1043,17719173.369842575
2,1, 1,21, 0,13, 0.00,60.00,WinterDesignDay
31,6839187.585544689
831,6839187.585544688
1043,21901860.44011941
2,1, 1,21, 0,14, 0.00,60.00,WinterDesignDay
31,6380424.807915534
831,6380424.807915533
1043,17733798.546919418
2,1, 1,21, 0,15, 0.00,60.00,WinterDesignDay
31,6833759.914531214
831,6833759.914531213
1043,21822511.49811681
2,1, 1,21, 0,16, 0.00,60.00,WinterDesignDay
31,6378142.179955928
831,6378142.179955927
1043,17666494.71397026
2,1, 1,21, 0,17, 0.00,60.00,WinterDesignDay
31,7563321.704495045
831,7563321.704495044
1043,21834684.2817875
2,1, 1,21, 0,18, 0.00,60.00,WinterDesignDay
31,8577076.314176534
831,8577076.314176534
1043,17637098.84260618
2,1, 1,21, 0,19, 0.00,60.00,WinterDesignDay
31,8927541.80607051
831,8927541.80607051
1043,29142365.549430476
2,1, 1,21, 0,20, 0.00,60.00,WinterDesignDay
31,7643093.14158481
831,7643093.14158481
1043,23723012.4199904
2,1, 1,21, 0,21, 0.00,60.00,WinterDesignDay
31,7964394.8445845129
831,7964394.8445845129
1043,30683166.523949416
2,1, 1,21, 0,22, 0.00,60.00,WinterDesignDay
31,7646448.520434195
831,7646448.520434195
1043,23828759.854439144
2,1, 1,21, 0,23, 0.00,60.00,WinterDesignDay
31,7972582.599692793
831,7972582.599692794
1043,30722527.34273312
2,1, 1,21, 0,24, 0.00,60.00,WinterDesignDay
31,7649087.146796931
831,7649087.146796932
1043,23835343.76906019
1,BUFFALO.NIAGARA.INTL.AP_NY_USA ANN CLG .4% CONDNS DB=>MWB,  41.98, -87.92,  -6.00, 201.00
2,1, 7,21, 0, 1, 0.00,60.00,SummerDesignDay
31,40041421.65829513
831,40041421.658295128
1043,0.0
2,1, 7,21, 0, 2, 0.00,60.00,SummerDesignDay
31,38732460.24387978
831,38732460.24387978
1043,0.0
2,1, 7,21, 0, 3, 0.00,60.00,SummerDesignDay
31,40049359.80792908
831,40049359.80792908
1043,0.0
2,1, 7,21, 0, 4, 0.00,60.00,SummerDesignDay
31,38518864.65906467
831,38518864.65906467
1043,0.0
2,1, 7,21, 0, 5, 0.00,60.00,SummerDesignDay
31,39386838.23896769
831,39386838.23896769
1043,0.0
2,1, 7,21, 0, 6, 0.00,60.00,SummerDesignDay
31,37002956.29281761
831,37002956.2928176
1043,0.0
2,1, 7,21, 0, 7, 0.00,60.00,SummerDesignDay
31,43369752.0661517
831,43369752.06615169
1043,0.0
2,1, 7,21, 0, 8, 0.00,60.00,SummerDesignDay
31,43767698.01649867
831,43767698.01649867
1043,0.0
2,1, 7,21, 0, 9, 0.00,60.00,SummerDesignDay
31,44985539.80830982
831,44985539.80830982
1043,0.0
2,1, 7,21, 0,10, 0.00,60.00,SummerDesignDay
31,45757454.56133985
831,45757454.56133985
1043,0.0
2,1, 7,21, 0,11, 0.00,60.00,SummerDesignDay
31,46389297.12582716
831,46389297.125827159
1043,0.0
2,1, 7,21, 0,12, 0.00,60.00,SummerDesignDay
31,47022053.03787284
831,47022053.03787283
1043,0.0
2,1, 7,21, 0,13, 0.00,60.00,SummerDesignDay
31,47601065.926170397
831,47601065.926170397
1043,0.0
2,1, 7,21, 0,14, 0.00,60.00,SummerDesignDay
31,48064146.231350038
831,48064146.23135004
1043,0.0
2,1, 7,21, 0,15, 0.00,60.00,SummerDesignDay
31,48554911.223299767
831,48554911.223299767
1043,0.0
2,1, 7,21, 0,16, 0.00,60.00,SummerDesignDay
31,48466186.78241361
831,48466186.7824136
1043,0.0
2,1, 7,21, 0,17, 0.00,60.00,SummerDesignDay
31,48308393.6463024
831,48308393.646302398
1043,0.0
2,1, 7,21, 0,18, 0.00,60.00,SummerDesignDay
31,47998397.8588517
831,47998397.8588517
1043,0.0
2,1, 7,21, 0,19, 0.00,60.00,SummerDesignDay
31,48167038.36670056
831,48167038.36670056
1043,0.0
2,1, 7,21, 0,20, 0.00,60.00,SummerDesignDay
31,43639654.006293248
831,43639654.006293248
1043,0.0
2,1, 7,21, 0,21, 0.00,60.00,SummerDesignDay
31,41222328.16420698
831,41222328.16420698
1043,0.0
2,1, 7,21, 0,22, 0.00,60.00,SummerDesignDay
31,42464596.07917216
831,42464596.07917216
1043,0.0
2,1, 7,21, 0,23, 0.00,60.00,SummerDesignDay
31,39790892.62637945
831,39790892.626379448
1043,0.0
2,1, 7,21, 0,24, 0.00,60.00,SummerDesignDay
31,41069136.79242585
831,41069136.79242585
1043,0.0
1,Chicago Ohare Intl Ap IL USA TMY3 WMO#=725300,  41.98, -87.92,  -6.00, 201.00
2,1, 1, 1, 0, 1, 0.00,60.00,Holiday
31,6404338.596677196
831,6404338.596677196
1043,0.0
2,1, 1, 1, 0, 2, 0.00,60.00,Holiday
31,6404338.596677196
831,6404338.596677196
1043,0.0
2,1, 1, 1, 0, 3, 0.00,60.00,Holiday
31,6404338.596677196
831,6404338.596677196
1043,0.0
2,1, 1, 1, 0, 4, 0.00,60.00,Holiday
31,6404338.596677196
831,6404338.596677196
1043,0.0
2,1, 1, 1, 0, 5, 0.00,60.00,Holiday
31,6404338.596677196
831,6404338.596677196
1043,0.0
2,1, 1, 1, 0, 6, 0.00,60.00,Holiday
31,6404338.596677196
831,6404338.596677196
1043,0.0
2,1, 1, 1, 0, 7, 0.00,60.00,Holiday
31,7595938.596677196
831,7595938.596677195
1043,0.0
2,1, 1, 1, 0, 8, 0.00,60.00,Holiday
31,6128818.596677196
831,6128818.596677195
1043,0.0
2,1, 1, 1, 0, 9, 0.00,60.00,Holiday
31,5395258.596677196
831,5395258.596677196
1043,0.0
2,1, 1, 1, 0,10, 0.00,60.00,Holiday
31,5395258.596677196
831,5395258.596677196
1043,0.0
2,1, 1, 1, 0,11, 0.00,60.00,Holiday
31,5395258.596677196
831,5395258.596677196
1043,0.0
2,1, 1, 1, 0,12, 0.00,60.00,Holiday
31,5395258.596677196
831,5395258.596677196
1043,0.0
2,1, 1, 1, 0,13, 0.00,60.00,Holiday
31,5395258.596677196
831,5395258.596677196
1043,0.0
2,1, 1, 1, 0,14, 0.00,60.00,Holiday
31,5395258.596677196
831,5395258.596677196
1043,0.0
2,1, 1, 1, 0,15, 0.00,60.00,Holiday
31,5395258.596677196
831,5395258.596677196
1043,0.0
2,1, 1, 1, 0,16, 0.00,60.00,Holiday
31,5395258.596677196
831,5395258.596677196
1043,0.0
2,1, 1, 1, 0,17, 0.00,60.00,Holiday
31,6862378.596677196
831,6862378.596677195
1043,0.0
2,1, 1, 1, 0,18, 0.00,60.00,Holiday
31,7595938.596677196
831,7595938.596677195
1043,0.0
2,1, 1, 1, 0,19, 0.00,60.00,Holiday
31,7595938.596677196
831,7595938.596677195
1043,0.0
2,1, 1, 1, 0,20, 0.00,60.00,Holiday
31,6794038.596677196
831,6794038.596677196
1043,0.0
2,1, 1, 1, 0,21, 0.00,60.00,Holiday
31,6794038.596677196
831,6794038.596677196
1043,0.0
2,1, 1, 1, 0,22, 0.00,60.00,Holiday
31,6794038.596677196
831,6794038.596677196
1043,0.0
2,1, 1, 1, 0,23, 0.00,60.00,Holiday
31,6794038.596677196
831,6794038.596677196
1043,0.0
2,1, 1, 1, 0,24, 0.00,60.00,Holiday
31,6794038.596677196
831,6794038.596677196
1043,0.0
2,2, 1, 2, 0, 1, 0.00,60.00,Monday
31,9469604.825749658
831,9469604.825749658
1043,0.0
2,2, 1, 2, 0, 2, 0.00,60.00,Monday
31,9469604.825749658
831,9469604.825749658
1043,0.0
2,2, 1, 2, 0, 3, 0.00,60.00,Monday
31,9469604.825749658
831,9469604.825749658
1043,0.0
2,2, 1, 2, 0, 4, 0.00,60.00,Monday
31,9469604.825749658
831,9469604.825749658
1043,0.0
2,2, 1, 2, 0, 5, 0.00,60.00,Monday
31,9469604.825749658
831,9469604.825749658
1043,0.0
2,2, 1, 2, 0, 6, 0.00,60.00,Monday
31,9469604.825749658
831,9469604.825749658
1043,0.0
2,2, 1, 2, 0, 7, 0.00,60.00,Monday
31,29610776.177636137
831,29610776.17763613
1043,5707198.811867738
2,2, 1, 2, 0, 8, 0.00,60.00,Monday
31,35868449.48324829
831,35868449.483248289
1043,5713893.751318113
2,2, 1, 2, 0, 9, 0.00,60.00,Monday
31,37794205.13193827
831,37794205.13193828
1043,0.0
2,2, 1, 2, 0,10, 0.00,60.00,Monday
31,34554253.789962489
831,34554253.789962489
1043,0.0
2,2, 1, 2, 0,11, 0.00,60.00,Monday
31,32407184.674232589
831,32407184.674232589
1043,0.0
2,2, 1, 2, 0,12, 0.00,60.00,Monday
31,30613081.942337354
831,30613081.94233735
1043,0.0
2,2, 1, 2, 0,13, 0.00,60.00,Monday
31,31354527.021832188
831,31354527.021832184
1043,0.0
2,2, 1, 2, 0,14, 0.00,60.00,Monday
31,30158061.82924198
831,30158061.82924199
1043,0.0
2,2, 1, 2, 0,15, 0.00,60.00,Monday
31,30882098.49623975
831,30882098.49623975
1043,0.0
2,2, 1, 2, 0,16, 0.00,60.00,Monday
31,31535073.03080255
831,31535073.030802549
1043,0.0
2,2, 1, 2, 0,17, 0.00,60.00,Monday
31,33310349.174687447
831,33310349.174687447
1043,0.0
2,2, 1, 2, 0,18, 0.00,60.00,Monday
31,34179736.33813867
831,34179736.33813868
1043,405268.5236488568
2,2, 1, 2, 0,19, 0.00,60.00,Monday
31,28611295.53016889
831,28611295.530168896
1043,0.0
2,2, 1, 2, 0,20, 0.00,60.00,Monday
31,11853154.258345897
831,11853154.258345895
1043,0.0
2,2, 1, 2, 0,21, 0.00,60.00,Monday
31,10637784.395628443
831,10637784.395628443
1043,0.0
2,2, 1, 2, 0,22, 0.00,60.00,Monday
31,10637784.395628443
831,10637784.395628443
1043,0.0
2,2, 1, 2, 0,23, 0.00,60.00,Monday
31,9543951.519120457
831,9543951.519120455
1043,0.0
2,2, 1, 2, 0,24, 0.00,60.00,Monday
31,7197449.08321209
831,7197449.08321209
1043,0.0
2,3, 1, 3, 0, 1, 0.00,60.00,Tuesday
31,9469604.825749658
831,9469604.825749658
1043,0.0
2,3, 1, 3, 0, 2, 0.00,60.00,Tuesday
31,9469604.825749658
831,9469604.825749658
1043,0.0
2,3, 1, 3, 0, 3, 0.00,60.00,Tuesday
31,9469604.825749658
831,9469604.825749658
1043,0.0
2,3, 1, 3, 0, 4, 0.00,60.00,Tuesday
31,9469604.825749658
831,9469604.825749658
1043,0.0
2,3, 1, 3, 0, 5, 0.00,60.00,Tuesday
31,9469604.825749658
831,9469604.825749658
1043,0.0
2,3, 1, 3, 0, 6, 0.00,60.00,Tuesday
31,9469604.825749658
831,9469604.825749658
1043,0.0
2,3, 1, 3, 0, 7, 0.00,60.00,Tuesday
31,26313508.178431736
831,26313508.178431743
1043,3178776.8666298815
2,3, 1, 3, 0, 8, 0.00,60.00,Tuesday
31,35203545.3652365
831,35203545.3652365
1043,7472809.675819759
2,3, 1, 3, 0, 9, 0.00,60.00,Tuesday
31,37275971.118466738
831,37275971.118466738
1043,0.0
2,3, 1, 3, 0,10, 0.00,60.00,Tuesday
31,35116815.04682742
831,35116815.04682741
1043,0.0
2,3, 1, 3, 0,11, 0.00,60.00,Tuesday
31,33455040.76155622
831,33455040.76155622
1043,0.0
2,3, 1, 3, 0,12, 0.00,60.00,Tuesday
31,32082805.069493534
831,32082805.06949354
1043,0.0
2,3, 1, 3, 0,13, 0.00,60.00,Tuesday
31,35069474.03676569
831,35069474.036765698
1043,380580.93539631596
2,3, 1, 3, 0,14, 0.00,60.00,Tuesday
31,30824688.771767446
831,30824688.771767446
1043,0.0
2,3, 1, 3, 0,15, 0.00,60.00,Tuesday
31,30779736.46767907
831,30779736.46767907
1043,0.0
2,3, 1, 3, 0,16, 0.00,60.00,Tuesday
31,31475738.39627414
831,31475738.39627414
1043,0.0
2,3, 1, 3, 0,17, 0.00,60.00,Tuesday
31,33654954.95523958
831,33654954.95523958
1043,0.0
2,3, 1, 3, 0,18, 0.00,60.00,Tuesday
31,33765569.5209308
831,33765569.520930808
1043,2471321.5080494175
2,3, 1, 3, 0,19, 0.00,60.00,Tuesday
31,28834761.340558717
831,28834761.340558717
1043,0.0
2,3, 1, 3, 0,20, 0.00,60.00,Tuesday
31,11853154.258345897
831,11853154.258345895
1043,0.0
2,3, 1, 3, 0,21, 0.00,60.00,Tuesday
31,10637784.395628443
831,10637784.395628443
1043,0.0
2,3, 1, 3, 0,22, 0.00,60.00,Tuesday
31,10637784.395628443
831,10637784.395628443
1043,0.0
2,3, 1, 3, 0,23, 0.00,60.00,Tuesday
31,9543951.519120457
831,9543951.519120455
1043,0.0
2,3, 1, 3, 0,24, 0.00,60.00,Tuesday
31,7197449.08321209
831,7197449.08321209
1043,0.0
2,4, 1, 4, 0, 1, 0.00,60.00,Wednesday
31,9469604.825749658
831,9469604.825749658
1043,0.0
2,4, 1, 4, 0, 2, 0.00,60.00,Wednesday
31,9469604.825749658
831,9469604.825749658
1043,0.0
2,4, 1, 4, 0, 3, 0.00,60.00,Wednesday
31,9469604.825749658
831,9469604.825749658
1043,0.0
2,4, 1, 4, 0, 4, 0.00,60.00,Wednesday
31,9469604.825749658
831,9469604.825749658
1043,0.0
2,4, 1, 4, 0, 5, 0.00,60.00,Wednesday
31,9469604.825749658
831,9469604.825749658
1043,0.0
2,4, 1, 4, 0, 6, 0.00,60.00,Wednesday
31,9469604.825749658
831,9469604.825749658
1043,0.0
2,4, 1, 4, 0, 7, 0.00,60.00,Wednesday
31,27867119.441178435
831,27867119.44117844
1043,3898145.2070000416
2,4, 1, 4, 0, 8, 0.00,60.00,Wednesday
31,36094838.0196804
831,36094838.01968041
1043,7440183.276621509
2,4, 1, 4, 0, 9, 0.00,60.00,Wednesday
31,37010075.82657621
831,37010075.8265762
1043,0.0
2,4, 1, 4, 0,10, 0.00,60.00,Wednesday
31,34239782.31850192
831,34239782.31850193
1043,0.0
2,4, 1, 4, 0,11, 0.00,60.00,Wednesday
31,32353402.508067725
831,32353402.508067725
1043,0.0
2,4, 1, 4, 0,12, 0.00,60.00,Wednesday
31,31256456.894405366
831,31256456.894405359
1043,0.0
2,4, 1, 4, 0,13, 0.00,60.00,Wednesday
31,33935581.52655654
831,33935581.52655654
1043,0.0
2,4, 1, 4, 0,14, 0.00,60.00,Wednesday
31,30247669.12514007
831,30247669.125140076
1043,0.0
2,4, 1, 4, 0,15, 0.00,60.00,Wednesday
31,30595870.18482772
831,30595870.184827724
1043,0.0
2,4, 1, 4, 0,16, 0.00,60.00,Wednesday
31,31538852.91336675
831,31538852.913366755
1043,0.0
2,4, 1, 4, 0,17, 0.00,60.00,Wednesday
31,33947150.61443162
831,33947150.61443162
1043,0.0
2,4, 1, 4, 0,18, 0.00,60.00,Wednesday
31,34315970.1626902
831,34315970.16269019
1043,3854627.7903475018
2,4, 1, 4, 0,19, 0.00,60.00,Wednesday
31,30908162.048556366
831,30908162.04855637
1043,0.0
2,4, 1, 4, 0,20, 0.00,60.00,Wednesday
31,11853154.258345897
831,11853154.258345895
1043,0.0
2,4, 1, 4, 0,21, 0.00,60.00,Wednesday
31,10637784.395628443
831,10637784.395628443
1043,0.0
2,4, 1, 4, 0,22, 0.00,60.00,Wednesday
31,10637784.395628443
831,10637784.395628443
1043,0.0
2,4, 1, 4, 0,23, 0.00,60.00,Wednesday
31,9543951.519120457
831,9543951.519120455
1043,0.0
2,4, 1, 4, 0,24, 0.00,60.00,Wednesday
31,7197449.08321209
831,7197449.08321209
1043,0.0
2,5, 1, 5, 0, 1, 0.00,60.00,Thursday
31,9469604.825749658
831,9469604.825749658
1043,0.0
2,5, 1, 5, 0, 2, 0.00,60.00,Thursday
31,9469604.825749658
831,9469604.825749658
1043,0.0
2,5, 1, 5, 0, 3, 0.00,60.00,Thursday
31,9469604.825749658
831,9469604.825749658
1043,0.0
2,5, 1, 5, 0, 4, 0.00,60.00,Thursday
31,9469604.825749658
831,9469604.825749658
1043,0.0
2,5, 1, 5, 0, 5, 0.00,60.00,Thursday
31,9469604.825749658
831,9469604.825749658
1043,0.0
2,5, 1, 5, 0, 6, 0.00,60.00,Thursday
31,9469604.825749658
831,9469604.825749658
1043,0.0
2,5, 1, 5, 0, 7, 0.00,60.00,Thursday
31,18461163.926771188
831,18461163.926771188
1043,43488106.16396269
2,5, 1, 5, 0, 8, 0.00,60.00,Thursday
31,19585601.918369708
831,19585601.91836971
1043,64457038.05158451
2,5, 1, 5, 0, 9, 0.00,60.00,Thursday
31,29724968.765361195
831,29724968.76536119
1043,35642143.36725623
2,5, 1, 5, 0,10, 0.00,60.00,Thursday
31,32423993.710737155
831,32423993.710737155
1043,16066451.883276862
2,5, 1, 5, 0,11, 0.00,60.00,Thursday
31,36025787.13053152
831,36025787.13053152
1043,0.0
2,5, 1, 5, 0,12, 0.00,60.00,Thursday
31,34291108.46724052
831,34291108.46724052
1043,0.0
2,5, 1, 5, 0,13, 0.00,60.00,Thursday
31,33868336.05345667
831,33868336.053456667
1043,0.0
2,5, 1, 5, 0,14, 0.00,60.00,Thursday
31,31737926.34143333
831,31737926.34143333
1043,0.0
2,5, 1, 5, 0,15, 0.00,60.00,Thursday
31,30659964.565989715
831,30659964.565989715
1043,0.0
2,5, 1, 5, 0,16, 0.00,60.00,Thursday
31,30893334.952820336
831,30893334.952820343
1043,0.0
2,5, 1, 5, 0,17, 0.00,60.00,Thursday
31,33501654.485165053
831,33501654.48516505
1043,0.0
2,5, 1, 5, 0,18, 0.00,60.00,Thursday
31,33817014.38910873
831,33817014.38910873
1043,1806931.7188488693
2,5, 1, 5, 0,19, 0.00,60.00,Thursday
31,29378837.20246202
831,29378837.20246202
1043,0.0
2,5, 1, 5, 0,20, 0.00,60.00,Thursday
31,11853154.258345897
831,11853154.258345895
1043,0.0
2,5, 1, 5, 0,21, 0.00,60.00,Thursday
31,10637784.395628443
831,10637784.395628443
1043,0.0
2,5, 1, 5, 0,22, 0.00,60.00,Thursday
31,10637784.395628443
831,10637784.395628443
1043,0.0
2,5, 1, 5, 0,23, 0.00,60.00,Thursday
31,9543951.519120457
831,9543951.519120455
1043,0.0
2,5, 1, 5, 0,24, 0.00,60.00,Thursday
31,7197449.08321209
831,7197449.08321209
1043,0.0
2,6, 1, 6, 0, 1, 0.00,60.00,Friday
31,9469604.825749658
831,9469604.825749658
1043,0.0
2,6, 1, 6, 0, 2, 0.00,60.00,Friday
31,9469604.825749658
831,9469604.825749658
1043,0.0
2,6, 1, 6, 0, 3, 0.00,60.00,Friday
31,9469604.825749658
831,9469604.825749658
1043,0.0
2,6, 1, 6, 0, 4, 0.00,60.00,Friday
31,9469604.825749658
831,9469604.825749658
1043,0.0
2,6, 1, 6, 0, 5, 0.00,60.00,Friday
31,9469604.825749658
831,9469604.825749658
1043,0.0
2,6, 1, 6, 0, 6, 0.00,60.00,Friday
31,9469604.825749658
831,9469604.825749658
1043,0.0
2,6, 1, 6, 0, 7, 0.00,60.00,Friday
31,18461163.926771188
831,18461163.926771188
1043,41725748.190776858
2,6, 1, 6, 0, 8, 0.00,60.00,Friday
31,19569374.728194685
831,19569374.728194685
1043,65441689.46232955
2,6, 1, 6, 0, 9, 0.00,60.00,Friday
31,29692612.486990796
831,29692612.486990796
1043,35806944.542433928
2,6, 1, 6, 0,10, 0.00,60.00,Friday
31,29412975.616912597
831,29412975.616912608
1043,23999162.752123868
2,6, 1, 6, 0,11, 0.00,60.00,Friday
31,29323979.38743066
831,29323979.38743066
1043,18194534.139599667
2,6, 1, 6, 0,12, 0.00,60.00,Friday
31,37227954.494972478
831,37227954.494972478
1043,0.0
2,6, 1, 6, 0,13, 0.00,60.00,Friday
31,38897137.67687266
831,38897137.67687266
1043,8940811.1806775
2,6, 1, 6, 0,14, 0.00,60.00,Friday
31,37413898.63782626
831,37413898.637826267
1043,0.0
2,6, 1, 6, 0,15, 0.00,60.00,Friday
31,36946309.15975962
831,36946309.159759629
1043,0.0
2,6, 1, 6, 0,16, 0.00,60.00,Friday
31,36247394.28855253
831,36247394.28855254
1043,2821785.6523549698
2,6, 1, 6, 0,17, 0.00,60.00,Friday
31,32221228.695000236
831,32221228.695000236
1043,19899596.721093257
2,6, 1, 6, 0,18, 0.00,60.00,Friday
31,23479436.556318888
831,23479436.556318888
1043,48944782.712755259
2,6, 1, 6, 0,19, 0.00,60.00,Friday
31,17578902.564850257
831,17578902.564850257
1043,51308712.29331159
2,6, 1, 6, 0,20, 0.00,60.00,Friday
31,11853154.258345897
831,11853154.258345895
1043,0.0
2,6, 1, 6, 0,21, 0.00,60.00,Friday
31,10637784.395628443
831,10637784.395628443
1043,0.0
2,6, 1, 6, 0,22, 0.00,60.00,Friday
31,10637784.395628443
831,10637784.395628443
1043,0.0
2,6, 1, 6, 0,23, 0.00,60.00,Friday
31,9543951.519120457
831,9543951.519120455
1043,0.0
2,6, 1, 6, 0,24, 0.00,60.00,Friday
31,7197449.08321209
831,7197449.08321209
1043,0.0
2,7, 1, 7, 0, 1, 0.00,60.00,Saturday
31,6404338.596677196
831,6404338.596677196
1043,0.0
2,7, 1, 7, 0, 2, 0.00,60.00,Saturday
31,6404338.596677196
831,6404338.596677196
1043,0.0
2,7, 1, 7, 0, 3, 0.00,60.00,Saturday
31,6404338.596677196
831,6404338.596677196
1043,0.0
2,7, 1, 7, 0, 4, 0.00,60.00,Saturday
31,6404338.596677196
831,6404338.596677196
1043,0.0
2,7, 1, 7, 0, 5, 0.00,60.00,Saturday
31,6404338.596677196
831,6404338.596677196
1043,0.0
2,7, 1, 7, 0, 6, 0.00,60.00,Saturday
31,6404338.596677196
831,6404338.596677196
1043,0.0
2,7, 1, 7, 0, 7, 0.00,60.00,Saturday
31,7595938.596677196
831,7595938.596677195
1043,0.0
2,7, 1, 7, 0, 8, 0.00,60.00,Saturday
31,6128818.596677196
831,6128818.596677195
1043,0.0
2,7, 1, 7, 0, 9, 0.00,60.00,Saturday
31,5395258.596677196
831,5395258.596677196
1043,0.0
2,7, 1, 7, 0,10, 0.00,60.00,Saturday
31,5395258.596677196
831,5395258.596677196
1043,0.0
2,7, 1, 7, 0,11, 0.00,60.00,Saturday
31,5395258.596677196
831,5395258.596677196
1043,0.0
2,7, 1, 7, 0,12, 0.00,60.00,Saturday
31,5395258.596677196
831,5395258.596677196
1043,0.0
2,7, 1, 7, 0,13, 0.00,60.00,Saturday
31,5395258.596677196
831,5395258.596677196
1043,0.0
2,7, 1, 7, 0,14, 0.00,60.00,Saturday
31,5395258.596677196
831,5395258.596677196
1043,0.0
2,7, 1, 7, 0,15, 0.00,60.00,Saturday
31,5395258.596677196
831,5395258.596677196
1043,0.0
2,7, 1, 7, 0,16, 0.00,60.00,Saturday
31,5395258.596677196
831,5395258.596677196
1043,0.0
2,7, 1, 7, 0,17, 0.00,60.00,Saturday
31,6495598.596677196
831,6495598.596677196
1043,0.0
2,7, 1, 7, 0,18, 0.00,60.00,Saturday
31,7595938.596677196
831,7595938.596677195
1043,0.0
2,7, 1, 7, 0,19, 0.00,60.00,Saturday
31,7595938.596677196
831,7595938.596677195
1043,0.0
2,7, 1, 7, 0,20, 0.00,60.00,Saturday
31,6794038.596677196
831,6794038.596677196
1043,0.0
2,7, 1, 7, 0,21, 0.00,60.00,Saturday
31,6794038.596677196
831,6794038.596677196
1043,0.0
2,7, 1, 7, 0,22, 0.00,60.00,Saturday
31,6794038.596677196
831,6794038.596677196
1043,0.0
2,7, 1, 7, 0,23, 0.00,60.00,Saturday
31,6794038.596677196
831,6794038.596677196
1043,0.0
2,7, 1, 7, 0,24, 0.00,60.00,Saturday
31,6794038.596677196
831,6794038.596677196
1043,0.0
2,8, 1, 8, 0, 1, 0.00,60.00,Sunday
31,6404338.596677196
831,6404338.596677196
1043,0.0
2,8, 1, 8, 0, 2, 0.00,60.00,Sunday
31,6404338.596677196
831,6404338.596677196
1043,0.0
2,8, 1, 8, 0, 3, 0.00,60.00,Sunday
31,6404338.596677196
831,6404338.596677196
1043,0.0
2,8, 1, 8, 0, 4, 0.00,60.00,Sunday
31,6404338.596677196
831,6404338.596677196
1043,0.0
2,8, 1, 8, 0, 5, 0.00,60.00,Sunday
31,6404338.596677196
831,6404338.596677196
1043,0.0
2,8, 1, 8, 0, 6, 0.00,60.00,Sunday
31,6404338.596677196
831,6404338.596677196
1043,0.0
2,8, 1, 8, 0, 7, 0.00,60.00,Sunday
31,7595938.596677196
831,7595938.596677195
1043,0.0
2,8, 1, 8, 0, 8, 0.00,60.00,Sunday
31,6128818.596677196
831,6128818.596677195
1043,0.0
2,8, 1, 8, 0, 9, 0.00,60.00,Sunday
31,5395258.596677196
831,5395258.596677196
1043,0.0
2,8, 1, 8, 0,10, 0.00,60.00,Sunday
31,5395258.596677196
831,5395258.596677196
1043,0.0
2,8, 1, 8, 0,11, 0.00,60.00,Sunday
31,5395258.596677196
831,5395258.596677196
1043,0.0
2,8, 1, 8, 0,12, 0.00,60.00,Sunday
31,5395258.596677196
831,5395258.596677196
1043,0.0
2,8, 1, 8, 0,13, 0.00,60.00,Sunday
31,5395258.596677196
831,5395258.596677196
1043,0.0
2,8, 1, 8, 0,14, 0.00,60.00,Sunday
31,5395258.596677196
831,5395258.596677196
1043,0.0
2,8, 1, 8, 0,15, 0.00,60.00,Sunday
31,5395258.596677196
831,5395258.596677196
1043,0.0
2,8, 1, 8, 0,16, 0.00,60.00,Sunday
31,5395258.596677196
831,5395258.596677196
1043,0.0
2,8, 1, 8, 0,17, 0.00,60.00,Sunday
31,6495598.596677196
831,6495598.596677196
1043,0.0
2,8, 1, 8, 0,18, 0.00,60.00,Sunday
31,7595938.596677196
831,7595938.596677195
1043,0.0
2,8, 1, 8, 0,19, 0.00,60.00,Sunday
31,7595938.596677196
831,7595938.596677195
1043,0.0
2,8, 1, 8, 0,20, 0.00,60.00,Sunday
31,6794038.596677196
831,6794038.596677196
1043,0.0
2,8, 1, 8, 0,21, 0.00,60.00,Sunday
31,6794038.596677196
831,6794038.596677196
1043,0.0
2,8, 1, 8, 0,22, 0.00,60.00,Sunday
31,6794038.596677196
831,6794038.596677196
1043,0.0
2,8, 1, 8, 0,23, 0.00,60.00,Sunday
31,6794038.596677196
831,6794038.596677196
1043,0.0
2,8, 1, 8, 0,24, 0.00,60.00,Sunday
31,6794038.596677196
831,6794038.596677196
1043,0.0
2,9, 1, 9, 0, 1, 0.00,60.00,Monday
31,9469604.825749658
831,9469604.825749658
1043,0.0
2,9, 1, 9, 0, 2, 0.00,60.00,Monday
31,9469604.825749658
831,9469604.825749658
1043,0.0
2,9, 1, 9, 0, 3, 0.00,60.00,Monday
31,9469604.825749658
831,9469604.825749658
1043,0.0
2,9, 1, 9, 0, 4, 0.00,60.00,Monday
31,9469604.825749658
831,9469604.825749658
1043,0.0
2,9, 1, 9, 0, 5, 0.00,60.00,Monday
31,9469604.825749658
831,9469604.825749658
1043,0.0
2,9, 1, 9, 0, 6, 0.00,60.00,Monday
31,9469604.825749658
831,9469604.825749658
1043,0.0
2,9, 1, 9, 0, 7, 0.00,60.00,Monday
31,34244377.73758739
831,34244377.737587388
1043,26848871.42008819
2,9, 1, 9, 0, 8, 0.00,60.00,Monday
31,37852204.563058
831,37852204.563058007
1043,28880261.414699429
2,9, 1, 9, 0, 9, 0.00,60.00,Monday
31,42650504.15264863
831,42650504.152648638
1043,891508.0691592159
2,9, 1, 9, 0,10, 0.00,60.00,Monday
31,37745654.95230239
831,37745654.9523024
1043,0.0
2,9, 1, 9, 0,11, 0.00,60.00,Monday
31,34653294.09720714
831,34653294.097207147
1043,0.0
2,9, 1, 9, 0,12, 0.00,60.00,Monday
31,32094433.73125763
831,32094433.73125763
1043,0.0
2,9, 1, 9, 0,13, 0.00,60.00,Monday
31,32123020.6130946
831,32123020.613094596
1043,0.0
2,9, 1, 9, 0,14, 0.00,60.00,Monday
31,30057028.83535483
831,30057028.83535483
1043,0.0
2,9, 1, 9, 0,15, 0.00,60.00,Monday
31,29801541.864964744
831,29801541.86496474
1043,0.0
2,9, 1, 9, 0,16, 0.00,60.00,Monday
31,30094025.656258964
831,30094025.656258964
1043,0.0
2,9, 1, 9, 0,17, 0.00,60.00,Monday
31,32298268.331618038
831,32298268.331618038
1043,0.0
2,9, 1, 9, 0,18, 0.00,60.00,Monday
31,30509422.44499576
831,30509422.444995759
1043,0.0
2,9, 1, 9, 0,19, 0.00,60.00,Monday
31,25552525.48566462
831,25552525.48566462
1043,0.0
2,9, 1, 9, 0,20, 0.00,60.00,Monday
31,11853154.258345897
831,11853154.258345895
1043,0.0
2,9, 1, 9, 0,21, 0.00,60.00,Monday
31,10637784.395628443
831,10637784.395628443
1043,0.0
2,9, 1, 9, 0,22, 0.00,60.00,Monday
31,10637784.395628443
831,10637784.395628443
1043,0.0
2,9, 1, 9, 0,23, 0.00,60.00,Monday
31,9543951.519120457
831,9543951.519120455
1043,0.0
2,9, 1, 9, 0,24, 0.00,60.00,Monday
31,7197449.08321209
831,7197449.08321209
1043,0.0
2,10, 1,10, 0, 1, 0.00,60.00,Tuesday
31,9469604.825749658
831,9469604.825749658
1043,0.0
2,10, 1,10, 0, 2, 0.00,60.00,Tuesday
31,9469604.825749658
831,9469604.825749658
1043,0.0
2,10, 1,10, 0, 3, 0.00,60.00,Tuesday
31,9469604.825749658
831,9469604.825749658
1043,0.0
2,10, 1,10, 0, 4, 0.00,60.00,Tuesday
31,9469604.825749658
831,9469604.825749658
1043,0.0
2,10, 1,10, 0, 5, 0.00,60.00,Tuesday
31,9469604.825749658
831,9469604.825749658
1043,0.0
2,10, 1,10, 0, 6, 0.00,60.00,Tuesday
31,9469604.825749658
831,9469604.825749658
1043,0.0
2,10, 1,10, 0, 7, 0.00,60.00,Tuesday
31,25517177.477282224
831,25517177.477282224
1043,3079253.3435537337
2,10, 1,10, 0, 8, 0.00,60.00,Tuesday
31,34877859.5062798
831,34877859.5062798
1043,6315443.294454063
2,10, 1,10, 0, 9, 0.00,60.00,Tuesday
31,33553805.429005065
831,33553805.42900507
1043,0.0
2,10, 1,10, 0,10, 0.00,60.00,Tuesday
31,30762543.55251387
831,30762543.55251388
1043,0.0
2,10, 1,10, 0,11, 0.00,60.00,Tuesday
31,29955477.940201258
831,29955477.94020126
1043,0.0
2,10, 1,10, 0,12, 0.00,60.00,Tuesday
31,29667475.576306616
831,29667475.57630661
1043,0.0
2,10, 1,10, 0,13, 0.00,60.00,Tuesday
31,27853005.18215219
831,27853005.182152187
1043,0.0
2,10, 1,10, 0,14, 0.00,60.00,Tuesday
31,29836133.72471107
831,29836133.72471108
1043,0.0
2,10, 1,10, 0,15, 0.00,60.00,Tuesday
31,29930066.791603976
831,29930066.791603976
1043,0.0
2,10, 1,10, 0,16, 0.00,60.00,Tuesday
31,29902545.934468043
831,29902545.934468043
1043,0.0
2,10, 1,10, 0,17, 0.00,60.00,Tuesday
31,31768125.705529117
831,31768125.705529117
1043,0.0
2,10, 1,10, 0,18, 0.00,60.00,Tuesday
31,28035007.702161615
831,28035007.70216161
1043,0.0
2,10, 1,10, 0,19, 0.00,60.00,Tuesday
31,25811180.12807685
831,25811180.128076849
1043,0.0
2,10, 1,10, 0,20, 0.00,60.00,Tuesday
31,11853154.258345897
831,11853154.258345895
1043,0.0
2,10, 1,10, 0,21, 0.00,60.00,Tuesday
31,10637784.395628443
831,10637784.395628443
1043,0.0
2,10, 1,10, 0,22, 0.00,60.00,Tuesday
31,10637784.395628443
831,10637784.395628443
1043,0.0
2,10, 1,10, 0,23, 0.00,60.00,Tuesday
31,9543951.519120457
831,9543951.519120455
1043,0.0
2,10, 1,10, 0,24, 0.00,60.00,Tuesday
31,7197449.08321209
831,7197449.08321209
1043,0.0
2,11, 1,11, 0, 1, 0.00,60.00,Wednesday
31,9469604.825749658
831,9469604.825749658
1043,0.0
2,11, 1,11, 0, 2, 0.00,60.00,Wednesday
31,9469604.825749658
831,9469604.825749658
1043,0.0
2,11, 1,11, 0, 3, 0.00,60.00,Wednesday
31,9469604.825749658
831,9469604.825749658
1043,0.0
2,11, 1,11, 0, 4, 0.00,60.00,Wednesday
31,9469604.825749658
831,9469604.825749658
1043,0.0
2,11, 1,11, 0, 5, 0.00,60.00,Wednesday
31,9469604.825749658
831,9469604.825749658
1043,0.0
2,11, 1,11, 0, 6, 0.00,60.00,Wednesday
31,9469604.825749658
831,9469604.825749658
1043,0.0
2,11, 1,11, 0, 7, 0.00,60.00,Wednesday
31,26593360.353920297
831,26593360.35392029
1043,3269793.0098609558
2,11, 1,11, 0, 8, 0.00,60.00,Wednesday
31,35832514.24371126
831,35832514.24371126
1043,7339629.445879668
2,11, 1,11, 0, 9, 0.00,60.00,Wednesday
31,37110359.95054761
831,37110359.950547609
1043,64407.43449626973
2,11, 1,11, 0,10, 0.00,60.00,Wednesday
31,33633152.60513714
831,33633152.60513714
1043,0.0
2,11, 1,11, 0,11, 0.00,60.00,Wednesday
31,31221992.31832315
831,31221992.318323155
1043,0.0
2,11, 1,11, 0,12, 0.00,60.00,Wednesday
31,29919829.963844465
831,29919829.963844465
1043,0.0
2,11, 1,11, 0,13, 0.00,60.00,Wednesday
31,28488978.041082596
831,28488978.04108259
1043,0.0
2,11, 1,11, 0,14, 0.00,60.00,Wednesday
31,29338341.004147039
831,29338341.004147047
1043,0.0
2,11, 1,11, 0,15, 0.00,60.00,Wednesday
31,29521194.972358228
831,29521194.972358236
1043,0.0
2,11, 1,11, 0,16, 0.00,60.00,Wednesday
31,29811913.407396798
831,29811913.407396798
1043,0.0
2,11, 1,11, 0,17, 0.00,60.00,Wednesday
31,31726863.687623007
831,31726863.687623
1043,0.0
2,11, 1,11, 0,18, 0.00,60.00,Wednesday
31,25401935.98061139
831,25401935.980611385
1043,0.0
2,11, 1,11, 0,19, 0.00,60.00,Wednesday
31,20933741.356735629
831,20933741.356735629
1043,0.0
2,11, 1,11, 0,20, 0.00,60.00,Wednesday
31,11853154.258345897
831,11853154.258345895
1043,0.0
2,11, 1,11, 0,21, 0.00,60.00,Wednesday
31,10637784.395628443
831,10637784.395628443
1043,0.0
2,11, 1,11, 0,22, 0.00,60.00,Wednesday
31,10637784.395628443
831,10637784.395628443
1043,0.0
2,11, 1,11, 0,23, 0.00,60.00,Wednesday
31,9543951.519120457
831,9543951.519120455
1043,0.0
2,11, 1,11, 0,24, 0.00,60.00,Wednesday
31,7197449.08321209
831,7197449.08321209
1043,0.0
2,12, 1,12, 0, 1, 0.00,60.00,Thursday
31,9469604.825749658
831,9469604.825749658
1043,0.0
2,12, 1,12, 0, 2, 0.00,60.00,Thursday
31,9469604.825749658
831,9469604.825749658
1043,0.0