Program Version,EnergyPlus, Version 8.6.0-198c6a3cff, YMD=2019.03.03 18:46
1,5,Environment Title[],Latitude[deg],Longitude[deg],Time Zone[],Elevation[m]
2,6,Day of Simulation[],Month[],Day of Month[],DST Indicator[1=yes 0=no],Hour[],StartMinute[],EndMinute[],DayType
3,3,Cumulative Day of Simulation[],Month[],Day of Month[],DST Indicator[1=yes 0=no],DayType  ! When Daily Report Variables Requested
4,2,Cumulative Days of Simulation[],Month[]  ! When Monthly Report Variables Requested
5,1,Cumulative Days of Simulation[] ! When Run Period Report Variables Requested
525,1,CORE_ZN,Zone Predicted Sensible Load to Setpoint Heat Transfer Rate [W] !Hourly
526,1,CORE_ZN,Zone Predicted Sensible Load to Heating Setpoint Heat Transfer Rate [W] !Hourly
527,1,CORE_ZN,Zone Predicted Sensible Load to Cooling Setpoint Heat Transfer Rate [W] !Hourly
562,1,PERIMETER_ZN_1,Zone Predicted Sensible Load to Setpoint Heat Transfer Rate [W] !Hourly
563,1,PERIMETER_ZN_1,Zone Predicted Sensible Load to Heating Setpoint Heat Transfer Rate [W] !Hourly
564,1,PERIMETER_ZN_1,Zone Predicted Sensible Load to Cooling Setpoint Heat Transfer Rate [W] !Hourly
599,1,PERIMETER_ZN_2,Zone Predicted Sensible Load to Setpoint Heat Transfer Rate [W] !Hourly
600,1,PERIMETER_ZN_2,Zone Predicted Sensible Load to Heating Setpoint Heat Transfer Rate [W] !Hourly
601,1,PERIMETER_ZN_2,Zone Predicted Sensible Load to Cooling Setpoint Heat Transfer Rate [W] !Hourly
636,1,PERIMETER_ZN_3,Zone Predicted Sensible Load to Setpoint Heat Transfer Rate [W] !Hourly
637,1,PERIMETER_ZN_3,Zone Predicted Sensible Load to Heating Setpoint Heat Transfer Rate [W] !Hourly
638,1,PERIMETER_ZN_3,Zone Predicted Sensible Load to Cooling Setpoint Heat Transfer Rate [W] !Hourly
673,1,PERIMETER_ZN_4,Zone Predicted Sensible Load to Setpoint Heat Transfer Rate [W] !Hourly
674,1,PERIMETER_ZN_4,Zone Predicted Sensible Load to Heating Setpoint Heat Transfer Rate [W] !Hourly
675,1,PERIMETER_ZN_4,Zone Predicted Sensible Load to Cooling Setpoint Heat Transfer Rate [W] !Hourly
710,1,ATTIC,Zone Predicted Sensible Load to Setpoint Heat Transfer Rate [W] !Hourly
711,1,ATTIC,Zone Predicted Sensible Load to Heating Setpoint Heat Transfer Rate [W] !Hourly
712,1,ATTIC,Zone Predicted Sensible Load to Cooling Setpoint Heat Transfer Rate [W] !Hourly
End of Data Dictionary
1,DENVER-AURORA-BUCKLEY.AFB_CO_USA ANN HTG 99.6% CONDNS DB,  40.13,-105.24,  -7.00,1689.00
2,1,12,21, 0, 1, 0.00,60.00,WinterDesignDay
525,1883.9590839244863
526,1866.8802915325562
527,41982.656837617156
562,3604.2684583420105
563,3604.2684583420105
564,35573.82148611762
599,2245.646115123174
600,2245.646115123174
601,21461.47821927784
636,3639.420059252052
637,3639.420059252052
638,35694.03884410866
673,2247.4273239640966
674,2247.4273239640966
675,21463.19323184516
710,0.0
711,0.0
712,0.0
2,1,12,21, 0, 2, 0.00,60.00,WinterDesignDay
525,2022.1421394275555
526,2005.1737830708232
527,42186.45075055017
562,4495.075342223927
563,4495.075342223927
564,36922.752068818554
599,2784.648181259667
600,2784.648181259667
601,22274.08066271504
636,4516.6808460500915
637,4516.6808460500915
638,36987.34007349035
673,2785.131241053909
674,2785.131241053909
675,22274.602697870967
710,0.0
711,0.0
712,0.0
2,1,12,21, 0, 3, 0.00,60.00,WinterDesignDay
525,1452.5537414101502
526,1418.6629011245877
527,39259.1338745935
562,3469.3242511440208
563,3469.3242511440208
564,34002.74448900927
599,2162.3585420593554
600,2162.3585420593554
601,20526.40787114603
636,3505.3058651129854
637,3505.3058651129854
638,34123.862572752085
673,2163.4291885264092
674,2163.4291885264092
675,20527.490726123924
710,0.0
711,0.0
712,0.0
2,1,12,21, 0, 4, 0.00,60.00,WinterDesignDay
525,2019.0406951400375
526,2002.1424034240888
527,42193.70055773292
562,4497.143199677382
563,4497.143199677382
564,36925.940117738865
599,2785.957212547894
600,2785.957212547894
601,22276.090138441145
636,4519.015260870537
637,4519.015260870537
638,36990.94851383429
673,2786.4144539217305
674,2786.4144539217305
675,22276.567276788996
710,0.0
711,0.0
712,0.0
2,1,12,21, 0, 5, 0.00,60.00,WinterDesignDay
525,1448.8219711938364
526,1415.1422723681578
527,39266.73359048853
562,3470.5793822409455
563,3470.5793822409455
564,34004.5612615254
599,2163.198895614541
600,2163.198895614541
601,20527.62056289703
636,3506.7520972500665
637,3506.7520972500665
638,34125.96990024977
673,2164.2617660591654
674,2164.2617660591654
675,20528.688236133577
710,0.0
711,0.0
712,0.0
2,1,12,21, 0, 6, 0.00,60.00,WinterDesignDay
525,2012.1562688601505
526,1995.3783170510476
527,42193.394462062664
562,4498.384454865812
563,4498.384454865812
564,36927.82041657136
599,2786.807656571993
600,2786.807656571993
601,22277.38468750563
636,4520.450172773385
637,4520.450172773385
638,36993.141925377065
673,2787.260053619599
674,2787.260053619599
675,22277.85358692253
710,0.0
711,0.0
712,0.0
2,1,12,21, 0, 7, 0.00,60.00,WinterDesignDay
525,1443.81111609524
526,1410.383022029302
527,39271.39018289767
562,3471.3937488251563
563,3471.3937488251563
564,34005.71250062107
599,2163.77109354888
600,2163.77109354888
601,20528.43863273562
636,3507.7085260212407
637,3507.7085260212407
638,34127.346553584364
673,2164.8326790949695
674,2164.8326790949695
675,20529.503505781806
710,0.0
711,0.0
712,0.0
2,1,12,21, 0, 8, 0.00,60.00,WinterDesignDay
525,1895.5108705878913
526,1895.5108705878913
527,38289.66859694467
562,3862.9211074223326
563,3857.7153342856327
564,33220.220207652914
599,2382.570699606978
600,2382.570699606978
601,20065.60640090791
636,3897.269932411648
637,3894.4371896590596
638,33338.25163636062
673,2382.8127160801273
674,2382.8127160801273
675,20065.99053467113
710,0.0
711,0.0
712,0.0
2,1,12,21, 0, 9, 0.00,60.00,WinterDesignDay
525,1580.7409822731352
526,1580.7409822731352
527,37538.96420126055
562,3330.3688556817565
563,3320.398553150067
564,32093.317344301147
599,2064.201110831204
600,2064.201110831204
601,19412.302858971594
636,3393.1137898697184
637,3388.0562693699903
638,32324.556818604764
673,2064.798471170452
674,2064.798471170452
675,19413.168363862682
710,0.0
711,0.0
712,0.0
2,1,12,21, 0,10, 0.00,60.00,WinterDesignDay
525,1908.8004121256115
526,1908.8004121256115
527,38289.86149041633
562,3823.2712585626864
563,3818.4104159608264
564,33169.06689635367
599,2356.6631840124514
600,2356.6631840124514
601,20031.963437479015
636,3855.65076955022
637,3853.2752973111706
638,33285.64786503676
673,2356.9667733554015
674,2356.9667733554015
675,20032.42378695176
710,0.0
711,0.0
712,0.0
2,1,12,21, 0,11, 0.00,60.00,WinterDesignDay
525,1595.9598337610885
526,1595.9598337610885
527,37536.96638156872
562,3324.38727044051
563,3314.806311254102
564,32083.40072491294
599,2059.514439572411
600,2059.514439572411
601,19404.618193587517
636,3386.2914438369367
637,3381.695839900183
638,32313.7739438616
673,2060.1101018797217
674,2060.1101018797217
675,19405.48818212054
710,0.0
711,0.0
712,0.0
2,1,12,21, 0,12, 0.00,60.00,WinterDesignDay
525,1928.8808550635997
526,1928.8808550635997
527,38302.827150564124
562,3819.968059734158
563,3815.228975400149
564,33164.04772245311
599,2353.99764731837
600,2353.99764731837
601,20027.708496350093
636,3851.615487907033
637,3849.371147617157
638,33279.307651694486
673,2354.3047797933436
674,2354.3047797933436
675,20028.175541103727
710,0.0
711,0.0
712,0.0
2,1,12,21, 0,13, 0.00,60.00,WinterDesignDay
525,1627.6798055800693
526,1627.6798055800693
527,37548.88702778664
562,3322.7328558363533
563,3313.330698789652
564,32081.697316159334
599,2057.9725659123296
600,2057.9725659123296
601,19402.481526393363
636,3384.0016714092203
637,3379.5879923124626
638,32310.678638282192
673,2058.567518731172
674,2058.567518731172
675,19403.351717056834
710,0.0
711,0.0
712,0.0
2,1,12,21, 0,14, 0.00,60.00,WinterDesignDay
525,1950.3959475373292
526,1950.3959475373292
527,38318.55139257355
562,3818.523451839196
563,3813.8537994187086
564,33162.175081276764
599,2352.741415852503
600,2352.741415852503
601,20025.823939557435
636,3849.69234802421
637,3847.5157307292543
638,33276.4378694425
673,2353.0502411991833
674,2353.0502411991833
675,20026.29388020904
710,0.0
711,0.0
712,0.0
2,1,12,21, 0,15, 0.00,60.00,WinterDesignDay
525,1616.8260582849919
526,1616.8260582849919
527,37539.029036617714
562,3321.891986363251
563,3312.605178856766
564,32081.19761275929
599,2057.1023799952272
600,2057.1023799952272
601,19401.391604701974
636,3382.692846865842
637,3378.3896742622874
638,32309.052887519592
673,2057.697010640065
674,2057.697010640065
675,19402.26173684672
710,0.0
711,0.0
712,0.0
2,1,12,21, 0,16, 0.00,60.00,WinterDesignDay
525,1930.5462484530344
526,1930.5462484530344
527,38305.87374869548
562,3817.48966122691
563,3812.8702960622572
564,33160.869926947424
599,2351.8650961173644
600,2351.8650961173644
601,20024.52953976359
636,3848.3194553801727
637,3846.19112456085
638,33274.412072314
673,2352.175046578774
674,2352.175046578774
675,20025.001365902794
710,0.0
711,0.0
712,0.0
2,1,12,21, 0,17, 0.00,60.00,WinterDesignDay
525,1623.8459310042144
526,1623.8459310042144
527,37549.19581014789
562,3321.1907786053234
563,3311.9934935219844
564,32080.707247085415
599,2056.436155586483
600,2056.436155586483
601,19400.560967787354
636,3381.659772720302
637,3377.443088352387
638,32307.771929982802
673,2057.030451674098
674,2057.030451674098
675,19401.43090344108
710,0.0
711,0.0
712,0.0
2,1,12,21, 0,18, 0.00,60.00,WinterDesignDay
525,1923.4275864885294
526,1923.4275864885294
527,38301.704442249604
562,3816.707992461061
563,3812.126707442633
564,33159.87845834786
599,2351.212112635468
600,2351.212112635468
601,20023.56462354468
636,3847.289664766555
637,3845.197679750685
638,33272.889295626854
673,2351.52287843334
674,2351.52287843334
675,20024.037812520943
710,0.0
711,0.0
712,0.0
2,1,12,21, 0,19, 0.00,60.00,WinterDesignDay
525,1593.1815818776024
526,1575.7095035671737
527,39407.648537638
562,3640.593389514364
563,3639.773475024837
564,34029.28012586447
599,2264.1346892030188
600,2264.1346892030188
601,20557.037013323195
636,3685.9864253810792
637,3685.9864253810792
638,34198.115640207536
673,2265.0423183449616
674,2265.0423183449616
675,20558.087995037
710,0.0
711,0.0
712,0.0
2,1,12,21, 0,20, 0.00,60.00,WinterDesignDay
525,2048.9029218705896
526,2031.6213086448854
527,42220.48516752812
562,4484.346045298322
563,4484.346045298322
564,36905.331845248795
599,2775.8851540724995
600,2775.8851540724995
601,22259.879943186617
636,4503.811568433005
637,4503.811568433005
638,36966.54826686423
673,2776.3549781313436
674,2776.3549781313436
675,22260.38237136869
710,0.0
711,0.0
712,0.0
2,1,12,21, 0,21, 0.00,60.00,WinterDesignDay
525,1474.2744749949559
526,1439.6482670316827
527,39276.087354919204
562,3464.40795740644
563,3464.40795740644
564,33995.07287238115
599,2158.1522172500163
600,2158.1522172500163
601,20519.817932321806
636,3499.1162164892644
637,3499.1162164892644
638,34114.1904948448
673,2159.2116826261363
674,2159.2116826261363
675,20520.887638151602
710,0.0
711,0.0
712,0.0
2,1,12,21, 0,22, 0.00,60.00,WinterDesignDay
525,2041.1079828421016
526,2023.9595221172146
527,42221.18517090586
562,4493.21901838376
563,4493.21901838376
564,36919.96258129933
599,2782.5359737624312
600,2782.5359737624312
601,22270.821068424015
636,4513.927059782737
637,4513.927059782737
638,36983.10417693115
673,2782.992853725244
674,2782.992853725244
675,22271.29867102412
710,0.0
711,0.0
712,0.0
2,1,12,21, 0,23, 0.00,60.00,WinterDesignDay
525,1459.0946034618544
526,1425.0078184255733
527,39277.455940568674
562,3468.2384017439604
563,3468.2384017439604
564,34001.272136800566
599,2161.0895453617736
600,2161.0895453617736
601,20524.56981883733
636,3503.599393822816
637,3503.599393822816
638,34121.392877683036
673,2162.149134409845
674,2162.149134409845
675,20525.634836904388
710,0.0
711,0.0
712,0.0
2,1,12,21, 0,24, 0.00,60.00,WinterDesignDay
525,2025.3251348036817
526,2008.3997452630472
527,42211.51434955117
562,4496.006160009182
563,4496.006160009182
564,36924.29153093577
599,2784.6883367601617
600,2784.6883367601617
601,22274.186046617528
636,4517.266229387188
637,4517.266229387188
638,36988.317280665266
673,2785.141675385809
674,2785.141675385809
675,22274.65715996694
710,0.0
711,0.0
712,0.0
1,DENVER-AURORA-BUCKLEY.AFB_CO_USA ANN CLG .4% CONDNS DB=>MWB,  40.13,-105.24,  -7.00,1689.00
2,1, 7,21, 0, 1, 0.00,60.00,SummerDesignDay
525,-4381.838595403301
526,-43965.202833719646
527,-4381.838595403301
562,-3158.79318867282
563,-33733.57985442598
564,-3158.79318867282
599,-1783.5753366237986
600,-20131.90710870855
601,-1783.5753366237986
636,-3171.9838952696814
637,-33716.22449552612
638,-3171.9838952696814
673,-1890.2951348007234
674,-20391.61210685736
675,-1883.2006171600976
710,0.0
711,0.0
712,0.0
2,1, 7,21, 0, 2, 0.00,60.00,SummerDesignDay
525,-4135.731349263846
526,-38033.75545453936
527,-4135.731349263846
562,-2917.71791057269
563,-29136.623858124207
564,-2917.71791057269
599,-1760.8243644833244
600,-17511.986445474053
601,-1760.8243644833244
636,-2901.2039360638046
637,-29092.957778568714
638,-2901.2039360638046
673,-1873.766119772344
674,-17755.002386015785
675,-1873.766119772344
710,0.0
711,0.0
712,0.0
2,1, 7,21, 0, 3, 0.00,60.00,SummerDesignDay
525,-3471.0686509047814
526,-35522.65365903056
527,-3471.0686509047814
562,-2290.0506455316468
563,-27067.45086118887
564,-2290.0506455316468
599,-1368.6155739057365
600,-16253.835040418044
601,-1368.6155739057365
636,-2295.549979529205
637,-27056.67760211993
638,-2295.549979529205
673,-1438.9369944378534
674,-16400.014861909294
675,-1438.9369944378534
710,0.0
711,0.0
712,0.0
2,1, 7,21, 0, 4, 0.00,60.00,SummerDesignDay
525,-4146.026073325318
526,-37989.836702896544
527,-4146.026073325318
562,-2807.0677452056298
563,-28891.62406551314
564,-2807.0677452056298
599,-1683.7173770458933
600,-17343.746508830474
601,-1683.7173770458933
636,-2795.92201414619
637,-28855.460987255457
638,-2795.92201414619
673,-1758.458011041682
674,-17519.138995377445
675,-1758.458011041682
710,0.0
711,0.0
712,0.0
2,1, 7,21, 0, 5, 0.00,60.00,SummerDesignDay
525,-3433.1663862141454
526,-35451.29807937384
527,-3433.1663862141454
562,-2182.104503855833
563,-26866.608730124823
564,-2182.104503855833
599,-1309.6084230673443
600,-16127.416550989852
601,-1309.6084230673443
636,-2191.9905069854317
637,-26861.2441497362
638,-2191.9905069854317
673,-1355.515006585073
674,-16235.964012180106
675,-1355.515006585073
710,0.0
711,0.0
712,0.0
2,1, 7,21, 0, 6, 0.00,60.00,SummerDesignDay
525,-4546.184766548906
526,-43996.9261799946
527,-4546.184766548906
562,-3071.0230728229235
563,-33347.758013277955
564,-3071.0230728229235
599,-2272.7700643954126
600,-20741.69675179805
601,-2272.7700643954126
636,-3173.0222269779206
637,-33547.84993113814
638,-3173.0222269779206
673,-1888.3334381206132
674,-20101.12146749973
675,-1888.3334381206132
710,0.0
711,0.0
712,0.0
2,1, 7,21, 0, 7, 0.00,60.00,SummerDesignDay
525,-2837.320508693943
526,-55578.5684542157
527,-2837.320508693943
562,-1933.367981864673
563,-42371.14925933937
564,-1933.367981864673
599,-1963.7115756509302
600,-27082.01774994087
601,-1963.7115756509302
636,-1983.6867521146476
637,-42528.555589107134
638,-1983.6867521146476
673,-1157.6022898402637
674,-25362.708347368607
675,-1157.6022898402637
710,0.0
711,0.0
712,0.0
2,1, 7,21, 0, 8, 0.00,60.00,SummerDesignDay
525,-2479.7802304556976
526,-72033.9930628366
527,-2479.7802304556976
562,-1876.0120102727842
563,-55189.05813291364
564,-1876.0120102727842
599,-2387.895002216534
600,-35707.62477398477
601,-2387.895002216534
636,-1879.7887603835436
637,-55223.9072407749
638,-1879.7887603835436
673,-1136.1352991270485
674,-32954.99520223366
675,-1136.1352991270485
710,0.0
711,0.0
712,0.0
2,1, 7,21, 0, 9, 0.00,60.00,SummerDesignDay
525,-2516.408729368788
526,-75900.77192593336
527,-2516.408729368788
562,-2008.3513410381877
563,-58421.593540043315
564,-2008.3513410381877
599,-2645.0006296901843
600,-37892.24205406463
601,-2645.0006296901843
636,-2023.5035348768251
637,-58464.63065766353
638,-2023.5035348768251
673,-1206.3222463908405
674,-34850.315188656605
675,-1206.3222463908405
710,0.0
711,0.0
712,0.0
2,1, 7,21, 0,10, 0.00,60.00,SummerDesignDay
525,-2592.3572113497025
526,-68612.62026907085
527,-2592.3572113497025
562,-2182.3232344444987
563,-53195.30920095346
564,-2182.3232344444987
599,-2519.211739633845
600,-34349.540453882604
601,-2519.211739633845
636,-2198.3450845168145
637,-53235.69164544292
638,-2198.3450845168145
673,-1307.3085798466116
674,-31741.067825069927
675,-1307.3085798466116
710,0.0
711,0.0
712,0.0
2,1, 7,21, 0,11, 0.00,60.00,SummerDesignDay
525,-2673.996625754018
526,-55692.34684048401
527,-2673.996625754018
562,-2409.1591194628113
563,-43792.813781897676
564,-2409.1591194628113
599,-2121.6032321437992
600,-27723.66091845364
601,-2121.6032321437992
636,-2354.3200043188212
637,-43653.306808799534
638,-2354.3200043188212
673,-1411.889449104351
674,-26092.043930424235
675,-1411.889449104351
710,0.0
711,0.0
712,0.0
2,1, 7,21, 0,12, 0.00,60.00,SummerDesignDay
525,-2746.899117091387
526,-42742.78691105921
527,-2746.899117091387
562,-2659.9385013566857
563,-34415.08457372666
564,-2659.9385013566857
599,-1911.519983354544
600,-21344.02405055181
601,-1911.519983354544
636,-2491.8590843197803
637,-34006.55153469108
638,-2491.8590843197803
673,-1507.7342706922298
674,-20407.681849111093
675,-1507.7342706922298
710,0.0
711,0.0
712,0.0
2,1, 7,21, 0,13, 0.00,60.00,SummerDesignDay
525,-2808.906410182466
526,-29759.6807459368
527,-2808.906410182466
562,-2844.964118901566
563,-24858.511220286877
564,-2844.964118901566
599,-1871.9408527201915
600,-15327.873891940422
601,-1871.9408527201915
636,-2608.5125153298272
637,-24299.94272841251
638,-2608.5125153298272
673,-1572.5152611583842
674,-14648.517610997502
675,-1572.5152611583842
710,0.0
711,0.0
712,0.0
2,1, 7,21, 0,14, 0.00,60.00,SummerDesignDay
525,-2857.3775242050324
526,-22373.443589356433
527,-2857.3775242050324
562,-2919.8926332231313
563,-19323.67730243098
564,-2919.8926332231313
599,-1856.3130119985592
600,-11908.444984009138
601,-1856.3130119985592
636,-2698.0523051937053
637,-18804.012165134507
638,-2698.0523051937053
673,-1716.662601018966
674,-11560.381771228427
675,-1716.662601018966
710,0.0
711,0.0
712,0.0
2,1, 7,21, 0,15, 0.00,60.00,SummerDesignDay
525,-2894.2929469751093
526,-29994.441768766075
527,-2894.2929469751093
562,-2917.3295050742927
563,-25014.032520657125
564,-2917.3295050742927
599,-1838.2841639747578
600,-15252.63087099558
601,-1838.2841639747578
636,-2752.83285452145
637,-24636.819900731953
638,-2752.83285452145
673,-2223.2585173532484
674,-15920.642869088535
675,-2223.2585173532484
710,0.0
711,0.0
712,0.0
2,1, 7,21, 0,16, 0.00,60.00,SummerDesignDay
525,-2910.4785133467485
526,-41328.68015853712
527,-2910.4785133467485
562,-2881.4725507773114
563,-33498.38043182981
564,-2881.4725507773114
599,-1798.714539382693
600,-20247.35530274332
601,-1798.714539382693
636,-2738.606401786467
637,-33184.36008594823
638,-2738.606401786467
673,-2787.3367423517248
674,-22014.654292967825
675,-2787.3367423517248
710,0.0
711,0.0
712,0.0
2,1, 7,21, 0,17, 0.00,60.00,SummerDesignDay
525,-2892.5068804707953
526,-54465.557259738685
527,-2892.5068804707953
562,-2804.8796709889734
563,-43322.973155977605
564,-2804.8796709889734
599,-1745.1388338113077
600,-26057.35598401607
601,-1745.1388338113077
636,-2678.6319053703533
637,-43044.94450843235
638,-2678.6319053703533
673,-3053.0984459877563
674,-28415.25339087417
675,-3053.0984459877563
710,0.0
711,0.0
712,0.0
2,1, 7,21, 0,18, 0.00,60.00,SummerDesignDay
525,-2860.898216520773
526,-63783.06224433742
527,-2860.898216520773
562,-2705.0744415483937
563,-50239.61710523778
564,-2705.0744415483937
599,-1652.7148196012704
600,-30092.761404489163
601,-1652.7148196012704
636,-2607.554186840181
637,-50021.158591990075
638,-2607.554186840181
673,-2981.777814620608
674,-32565.583957358424
675,-2981.777814620608
710,0.0
711,0.0
712,0.0
2,1, 7,21, 0,19, 0.00,60.00,SummerDesignDay
525,-2808.403169642665
526,-67404.73798835388
527,-2808.403169642665
562,-2537.452696593561
563,-52717.92982296626
564,-2537.452696593561
599,-1545.0418538736312
600,-31540.346094027005
601,-1545.0418538736312
636,-2537.304755276045
637,-52734.16061900047
638,-2537.304755276045
673,-2553.1554452206265
674,-33568.02397506908
675,-2553.1554452206265
710,0.0
711,0.0
712,0.0
2,1, 7,21, 0,20, 0.00,60.00,SummerDesignDay
525,-5126.228517268136
526,-73212.07387423494
527,-5126.228517268136
562,-4110.171450954114
563,-56710.374557050585
564,-4110.171450954114
599,-2410.7962388209608
600,-33843.40151941953
601,-2410.7962388209608
636,-4153.905188225612
637,-56764.34503730148
638,-4153.905188225612
673,-3006.7213409200253
674,-34989.83215316194
675,-3006.7213409200253
710,0.0
711,0.0
712,0.0
2,1, 7,21, 0,21, 0.00,60.00,SummerDesignDay
525,-5353.973609641341
526,-58337.89511838899
527,-5353.973609641341
562,-4232.755926569719
563,-45277.30910990229
564,-4232.755926569719
599,-2527.0829397656184
600,-27108.733010428754
601,-2527.0829397656184
636,-4229.444181759388
637,-45268.40622028333
638,-4229.444181759388
673,-3046.5522706371607
674,-27989.895308104216
675,-3046.5522706371607
710,0.0
711,0.0
712,0.0
2,1, 7,21, 0,22, 0.00,60.00,SummerDesignDay
525,-4474.139841232652
526,-47990.56864479345
527,-4474.139841232652
562,-3343.7325347526626
563,-37052.109604870726
564,-3343.7325347526626
599,-1943.0235965300024
600,-22158.338341710285
601,-1943.0235965300024
636,-3344.5585102827936
637,-37047.05155878277
638,-3344.5585102827936
673,-2215.3494123537057
674,-22586.536982170324
675,-2215.3494123537057
710,0.0
711,0.0
712,0.0
2,1, 7,21, 0,23, 0.00,60.00,SummerDesignDay
525,-4771.4586488284895
526,-44495.541876250434
527,-4771.4586488284895
562,-3557.298500247272
563,-34361.975360559896
564,-3557.298500247272
599,-2114.208779646253
600,-20614.573209903447
601,-2114.208779646253
636,-3541.8377032998474
637,-34325.99236144685
638,-3541.8377032998474
673,-2358.5829963597307
674,-21081.39136791536
675,-2358.5829963597307
710,0.0
711,0.0
712,0.0
2,1, 7,21, 0,24, 0.00,60.00,SummerDesignDay
525,-5328.619366192229
526,-48735.20595132178
527,-5328.619366192229
562,-3442.6352501771703
563,-36934.25174676225
564,-3442.6352501771703
599,-1966.284155183156
600,-22044.538688375793
601,-1966.284155183156
636,-3462.8072381551406
637,-36946.39688445042
638,-3462.8072381551406
673,-2103.3944810785524
674,-22308.960019290873
675,-2103.3944810785524
710,0.0
711,0.0
712,0.0
1,Broomfield Jeffco  Boulder   S CO USA TMY3 WMO#=724699,  40.13,-105.24,  -7.00,1689.00
2,1, 1, 1, 0, 1, 0.00,60.00,Holiday
525,0.0
526,-11768.642819558212
527,27240.868119650946
562,0.0
563,-6625.80696596546
564,24717.29900313544
599,0.0
600,-2588.4389473792576
601,16279.242333261514
636,0.0
637,-3536.9128998331194
638,28159.925280816915
673,0.0
674,-2521.799855758575
675,16305.758712578749
710,0.0
711,0.0
712,0.0
2,1, 1, 1, 0, 2, 0.00,60.00,Holiday
525,0.0
526,-13541.292271155717
527,34422.1985116773
562,0.0
563,-7466.631553773422
564,31435.57011792141
599,0.0
600,-2909.8914174050547
601,20624.182031325414
636,0.0
637,-3966.7957366661108
638,35608.02049394425
673,0.0
674,-2833.16937822335
675,20691.641808641805
710,0.0
711,0.0
712,0.0
2,1, 1, 1, 0, 3, 0.00,60.00,Holiday
525,0.0
526,-9584.380497226326
527,25597.504349506402
562,0.0
563,-5184.695310285771
564,24069.807721930614
599,0.0
600,-2017.8716444714921
601,15715.58847776033
636,0.0
637,-2752.7190266582506
638,27025.739304954743
673,0.0
674,-1963.7941322635436
675,15764.056033370283
710,0.0
711,0.0
712,0.0
2,1, 1, 1, 0, 4, 0.00,60.00,Holiday
525,0.0
526,-7573.342503114321
527,21242.986502947075
562,0.0
563,-3960.5238906716127
564,20492.18102600903
599,0.0
600,-1537.2885562722047
601,13312.739986403541
636,0.0
637,-2098.979562009528
638,22814.008134216772
673,0.0
674,-1494.7289169006951
675,13352.483161463226
710,0.0
711,0.0
712,0.0
2,1, 1, 1, 0, 5, 0.00,60.00,Holiday
525,0.0
526,-7373.202294380018
527,21556.167875156898
562,0.0
563,-3582.6044688544116
564,20976.495225846724
599,0.0
600,-1365.843134335463
601,13573.52224214426
636,0.0
637,-1864.7753766821443
638,23185.9264059936
673,0.0
674,-1325.9936698968456
675,13612.108681879601
710,0.0
711,0.0
712,0.0
2,1, 1, 1, 0, 6, 0.00,60.00,Holiday
525,0.0
526,-7192.976861529501
527,21855.875859325344
562,0.0
563,-3219.1197715820726
564,21468.70153505221
599,0.0
600,-1199.1151908042364
601,13870.06272403636
636,0.0
637,-1637.2142654509069
638,23594.491439465317
673,0.0
674,-1163.0366306420929
675,13904.503345261764
710,0.0
711,0.0
712,0.0
2,1, 1, 1, 0, 7, 0.00,60.00,Holiday
525,0.0
526,-7033.64791761373
527,22145.542981541057
562,0.0
563,-2916.880256505776
564,21810.700676880864
599,0.0
600,-1062.1136642809142
601,14024.660954685081
636,0.0
637,-1457.1764351180202
638,23801.36928876056
673,0.0
674,-1031.429424582059
675,14050.901155658707
710,0.0
711,0.0
712,0.0
2,1, 1, 1, 0, 8, 0.00,60.00,Holiday
525,0.0
526,-7656.396907777739
527,24886.113837217188
562,0.0
563,-3168.4960538287355
564,24205.855360018304
599,0.0
600,-1274.8638593016647
601,15337.933457190573
636,0.0
637,-1458.203922886679
638,26332.31944802153
673,0.0
674,-1020.3809690007516
675,15569.51372972686
710,0.0
711,0.0
712,0.0
2,1, 1, 1, 0, 9, 0.00,60.00,Holiday
525,0.0
526,-17677.709069966335
527,57149.80216293918
562,0.0
563,-9994.861288037231
564,49348.50343226254
599,0.0
600,-4855.282866037847
601,30442.008867762313
636,0.0
637,-3598.714085655682
638,56306.3928971287
673,0.0
674,-2428.67976805196
675,33188.00436628753
710,0.0
711,0.0
712,0.0
2,1, 1, 1, 0,10, 0.00,60.00,Holiday
525,0.0
526,-25816.494160263926
527,78146.27547744425
562,0.0
563,-21638.89062604911
564,59823.24287393821
599,0.0
600,-9640.62829610479
601,38928.7657453653
636,0.0
637,-6083.297429745354
638,75626.58459636606
673,0.0
674,-4075.3906276926427
675,44500.63958149732
710,0.0
711,0.0
712,0.0
2,1, 1, 1, 0,11, 0.00,60.00,Holiday
525,0.0
526,-31053.874977264077
527,77225.22330601824
562,0.0
563,-32558.78147854173
564,52723.36415564603
599,0.0
600,-10810.842280716208
601,38663.10478855417
636,0.0
637,-7777.488271995043
638,75365.41068764782
673,0.0
674,-5423.251515981788
675,44148.97603301594
710,0.0
711,0.0
712,0.0
2,1, 1, 1, 0,12, 0.00,60.00,Holiday
525,0.0
526,-26153.042412297425
527,59487.631767584804
562,0.0
563,-32129.88495326483
564,35588.256999553116
599,0.0
600,-8332.859377244285
601,30364.949173771547
636,0.0
637,-7423.551943737479
638,57885.40061645509
673,0.0
674,-5423.842401993301
675,34132.68693304729
710,0.0
711,0.0
712,0.0
2,1, 1, 1, 0,13, 0.00,60.00,Holiday
525,0.0
526,-19464.695747234786
527,40625.7427846686
562,0.0
563,-25984.068722040378
564,21477.626085416316
599,0.0
600,-6173.470920363739
601,20927.64066140952
636,0.0
637,-6066.876567367105
638,39605.68169748893
673,0.0
674,-4530.590532983314
675,23300.680415819617
710,0.0
711,0.0
712,0.0
2,1, 1, 1, 0,14, 0.00,60.00,Holiday
525,0.0
526,-12884.939097593364
527,24768.927846199924
562,0.0
563,-15834.997195022434
564,12673.253154968288
599,0.0
600,-4113.172053860024
601,12816.707439546937
636,0.0
637,-4337.119347981702
638,23979.08398523719
673,0.0
674,-3480.030745920063
675,14019.064406920234
710,0.0
711,0.0
712,0.0
2,1, 1, 1, 0,15, 0.00,60.00,Holiday
525,0.0
526,-20096.387130661467
527,36836.20810039893
562,0.0
563,-21243.52668028419
564,19941.103108688138
599,0.0
600,-6220.717433608802
601,19223.316849362152
636,0.0
637,-7057.516984929215
638,35985.08030235726
673,0.0
674,-6005.253605234276
675,20009.159839989657
710,0.0
711,0.0
712,0.0
2,1, 1, 1, 0,16, 0.00,60.00,Holiday
525,0.0
526,-28397.428105373998
527,50857.91703931344
562,0.0
563,-26767.237986482593
564,30560.167261152255
599,0.0
600,-8349.306776112368
601,26891.682676634806
636,0.0
637,-9988.893149469955
638,50006.269859933236
673,0.0
674,-8667.126573122052
675,27078.543919001502
710,0.0
711,0.0
712,0.0
2,1, 1, 1, 0,17, 0.00,60.00,Holiday
525,0.0
526,-29514.46226063107
527,52691.111398424
562,0.0
563,-24673.11477405827
564,33929.28984495198
599,0.0
600,-8405.794469718085
601,28390.817909755144
636,0.0
637,-10390.174839860934
638,52126.52765418735
673,0.0
674,-8955.328597860704
675,28065.873078197536
710,0.0
711,0.0
712,0.0
2,1, 1, 1, 0,18, 0.00,60.00,Holiday
525,0.0
526,-26875.386262805143
527,48759.82448330339
562,0.0
563,-20174.664381070714
564,34520.93058919923
599,0.0
600,-7181.661077794979
601,26421.540517861384
636,0.0
637,-9104.41397534503
638,48223.27231376662
673,0.0
674,-7432.582590777439
675,26466.50420565931
710,0.0
711,0.0
712,0.0
2,1, 1, 1, 0,19, 0.00,60.00,Holiday
525,0.0
526,-18599.323365437114
527,34736.448289676075
562,0.0
563,-12833.214400708364
564,25419.219129761757
599,0.0
600,-4739.132475057916
601,18749.95351240604
636,0.0
637,-6094.940660919378
638,33824.61656426557
673,0.0
674,-4873.6921635902045
675,18955.420243896002
710,0.0
711,0.0
712,0.0
2,1, 1, 1, 0,20, 0.00,60.00,Holiday
525,0.0
526,-13861.637640476287
527,26620.76277862364
562,0.0
563,-9157.950337211701
564,20416.28219987344
599,0.0
600,-3434.709247004152
601,14588.068962471787
636,0.0
637,-4413.768341281729
638,25771.386017739995
673,0.0
674,-3446.1073599771894
675,14572.505603658807
710,0.0
711,0.0
712,0.0
2,1, 1, 1, 0,21, 0.00,60.00,Holiday
525,0.0
526,-10365.244476051043
527,20458.932336826925
562,0.0
563,-6513.250833897709
564,16498.765373084447
599,0.0
600,-2481.8401502497554
601,11523.779368118523
636,0.0
637,-3182.1370853871886
638,20000.521801064097
673,0.0
674,-2402.550363427375
675,11247.437162698081
710,0.0
711,0.0
712,0.0
2,1, 1, 1, 0,22, 0.00,60.00,Holiday
525,0.0
526,-10198.93278640742
527,20577.567580934
562,0.0
563,-6176.8626705059605
564,17105.87113425825
599,0.0
600,-2367.280418021411
601,11617.434109610207
636,0.0
637,-3051.2440884027396
638,19871.07708081335
673,0.0
674,-2288.0379848061007
675,11408.040223869857
710,0.0
711,0.0
712,0.0
2,1, 1, 1, 0,23, 0.00,60.00,Holiday
525,0.0
526,-10064.657157964017
527,20682.432926836842
562,0.0
563,-5783.129444098863
564,17843.87539513108
599,0.0
600,-2237.986134456989
601,12023.021034228737
636,0.0
637,-2961.8088370213713
638,20767.067676857645
673,0.0
674,-2182.779311207741
675,11967.31870784705
710,0.0
711,0.0
712,0.0