Program Version,EnergyPlus, Version 8.6.0-198c6a3cff, YMD=2019.03.03 18:46
1,5,Environment Title[],Latitude[deg],Longitude[deg],Time Zone[],Elevation[m]
2,6,Day of Simulation[],Month[],Day of Month[],DST Indicator[1=yes 0=no],Hour[],StartMinute[],EndMinute[],DayType
3,3,Cumulative Day of Simulation[],Month[],Day of Month[],DST Indicator[1=yes 0=no],DayType  ! When Daily Meters Requested
4,2,Cumulative Days of Simulation[],Month[]  ! When Monthly Meters Requested
5,1,Cumulative Days of Simulation[] ! When Run Period Meters Requested
31,1,Electricity:Facility [J] !Hourly
831,1,ElectricityNet:Facility [J] !Hourly
1043,1,Gas:Facility [J] !Hourly
End of Data Dictionary
1,DENVER-AURORA-BUCKLEY.AFB_CO_USA ANN HTG 99.6% CONDNS DB,  40.13,-105.24,  -7.00,1689.00
2,1,12,21, 0, 1, 0.00,60.00,WinterDesignDay
31,8894147.670542689
831,8894147.670542689
1043,27938746.500251097
2,1,12,21, 0, 2, 0.00,60.00,WinterDesignDay
31,8023326.403231109
831,8023326.403231109
1043,22331277.492446927
2,1,12,21, 0, 3, 0.00,60.00,WinterDesignDay
31,8998758.822176287
831,8998758.822176287
1043,25732972.8363787
2,1,12,21, 0, 4, 0.00,60.00,WinterDesignDay
31,8023326.403231109
831,8023326.403231109
1043,22339213.415394214
2,1,12,21, 0, 5, 0.00,60.00,WinterDesignDay
31,8998758.822176287
831,8998758.822176287
1043,25735130.327594144
2,1,12,21, 0, 6, 0.00,60.00,WinterDesignDay
31,8023326.403231109
831,8023326.403231109
1043,22336328.832480223
2,1,12,21, 0, 7, 0.00,60.00,WinterDesignDay
31,10190358.822176286
831,10190358.822176287
1043,25730562.877326885
2,1,12,21, 0, 8, 0.00,60.00,WinterDesignDay
31,7613714.326755214
831,7613714.326755215
1043,21496758.510293746
2,1,12,21, 0, 9, 0.00,60.00,WinterDesignDay
31,7728474.224921199
831,7728474.224921199
1043,26043145.52875422
2,1,12,21, 0,10, 0.00,60.00,WinterDesignDay
31,6890634.398457008
831,6890634.39845701
1043,21009182.878356015
2,1,12,21, 0,11, 0.00,60.00,WinterDesignDay
31,7745983.988814136
831,7745983.988814136
1043,26002899.857945164
2,1,12,21, 0,12, 0.00,60.00,WinterDesignDay
31,6898832.121317214
831,6898832.121317214
1043,21007824.495711119
2,1,12,21, 0,13, 0.00,60.00,WinterDesignDay
31,7768645.155392764
831,7768645.155392764
1043,26030901.538267133
2,1,12,21, 0,14, 0.00,60.00,WinterDesignDay
31,6906579.730285668
831,6906579.730285668
1043,21027384.270661408
2,1,12,21, 0,15, 0.00,60.00,WinterDesignDay
31,7769083.630895162
831,7769083.630895162
1043,25997296.413767049
2,1,12,21, 0,16, 0.00,60.00,WinterDesignDay
31,6900000.857383343
831,6900000.857383343
1043,20996407.006187448
2,1,12,21, 0,17, 0.00,60.00,WinterDesignDay
31,8867348.6414929
831,8867348.641492902
1043,26010328.07049624
2,1,12,21, 0,18, 0.00,60.00,WinterDesignDay
31,9097539.052491017
831,9097539.052491017
1043,20989609.094754418
2,1,12,21, 0,19, 0.00,60.00,WinterDesignDay
31,10099775.477538854
831,10099775.477538854
1043,26918252.894445495
2,1,12,21, 0,20, 0.00,60.00,WinterDesignDay
31,8413026.403293385
831,8413026.403293387
1043,22306946.754354806
2,1,12,21, 0,21, 0.00,60.00,WinterDesignDay
31,9388458.822238565
831,9388458.822238565
1043,25738188.314870188
2,1,12,21, 0,22, 0.00,60.00,WinterDesignDay
31,8413026.403293385
831,8413026.403293387
1043,22351633.394035065
2,1,12,21, 0,23, 0.00,60.00,WinterDesignDay
31,9388458.822176287
831,9388458.822176289
1043,25738691.23883475
2,1,12,21, 0,24, 0.00,60.00,WinterDesignDay
31,8413026.403231109
831,8413026.403231109
1043,22341683.56233406
1,DENVER-AURORA-BUCKLEY.AFB_CO_USA ANN CLG .4% CONDNS DB=>MWB,  40.13,-105.24,  -7.00,1689.00
2,1, 7,21, 0, 1, 0.00,60.00,SummerDesignDay
31,40910743.25744842
831,40910743.25744842
1043,0.0
2,1, 7,21, 0, 2, 0.00,60.00,SummerDesignDay
31,38345480.52389167
831,38345480.52389167
1043,0.0
2,1, 7,21, 0, 3, 0.00,60.00,SummerDesignDay
31,39786343.528954368
831,39786343.528954368
1043,0.0
2,1, 7,21, 0, 4, 0.00,60.00,SummerDesignDay
31,38258499.43186041
831,38258499.43186041
1043,0.0
2,1, 7,21, 0, 5, 0.00,60.00,SummerDesignDay
31,39362302.08209014
831,39362302.08209014
1043,0.0
2,1, 7,21, 0, 6, 0.00,60.00,SummerDesignDay
31,37133181.919388268
831,37133181.919388268
1043,0.0
2,1, 7,21, 0, 7, 0.00,60.00,SummerDesignDay
31,44041899.96833058
831,44041899.968330588
1043,0.0
2,1, 7,21, 0, 8, 0.00,60.00,SummerDesignDay
31,43125012.434896159
831,43125012.43489616
1043,0.0
2,1, 7,21, 0, 9, 0.00,60.00,SummerDesignDay
31,44066515.96143159
831,44066515.9614316
1043,0.0
2,1, 7,21, 0,10, 0.00,60.00,SummerDesignDay
31,45197206.11684631
831,45197206.11684631
1043,0.0
2,1, 7,21, 0,11, 0.00,60.00,SummerDesignDay
31,46199372.30544909
831,46199372.30544909
1043,0.0
2,1, 7,21, 0,12, 0.00,60.00,SummerDesignDay
31,47270466.75005732
831,47270466.75005732
1043,0.0
2,1, 7,21, 0,13, 0.00,60.00,SummerDesignDay
31,48182398.62761734
831,48182398.627617347
1043,0.0
2,1, 7,21, 0,14, 0.00,60.00,SummerDesignDay
31,48950714.917846199
831,48950714.91784621
1043,0.0
2,1, 7,21, 0,15, 0.00,60.00,SummerDesignDay
31,49640869.80741337
831,49640869.80741338
1043,0.0
2,1, 7,21, 0,16, 0.00,60.00,SummerDesignDay
31,49600336.04054916
831,49600336.04054917
1043,0.0
2,1, 7,21, 0,17, 0.00,60.00,SummerDesignDay
31,49272438.33502497
831,49272438.33502498
1043,0.0
2,1, 7,21, 0,18, 0.00,60.00,SummerDesignDay
31,48690591.326740067
831,48690591.32674007
1043,0.0
2,1, 7,21, 0,19, 0.00,60.00,SummerDesignDay
31,48069539.1222965
831,48069539.122296508
1043,0.0
2,1, 7,21, 0,20, 0.00,60.00,SummerDesignDay
31,43248415.71890276
831,43248415.71890275
1043,0.0
2,1, 7,21, 0,21, 0.00,60.00,SummerDesignDay
31,41233260.5297031
831,41233260.5297031
1043,0.0
2,1, 7,21, 0,22, 0.00,60.00,SummerDesignDay
31,43111190.265612367
831,43111190.265612367
1043,0.0
2,1, 7,21, 0,23, 0.00,60.00,SummerDesignDay
31,39729779.41470435
831,39729779.41470435
1043,0.0
2,1, 7,21, 0,24, 0.00,60.00,SummerDesignDay
31,43217140.87231443
831,43217140.87231444
1043,0.0
1,Broomfield Jeffco  Boulder   S CO USA TMY3 WMO#=724699,  40.13,-105.24,  -7.00,1689.00
2,1, 1, 1, 0, 1, 0.00,60.00,Holiday
31,6404338.596677196
831,6404338.596677196
1043,0.0
2,1, 1, 1, 0, 2, 0.00,60.00,Holiday
31,6404338.596677196
831,6404338.596677196
1043,0.0
2,1, 1, 1, 0, 3, 0.00,60.00,Holiday
31,6404338.596677196
831,6404338.596677196
1043,0.0
2,1, 1, 1, 0, 4, 0.00,60.00,Holiday
31,6404338.596677196
831,6404338.596677196
1043,0.0
2,1, 1, 1, 0, 5, 0.00,60.00,Holiday
31,6404338.596677196
831,6404338.596677196
1043,0.0
2,1, 1, 1, 0, 6, 0.00,60.00,Holiday
31,6404338.596677196
831,6404338.596677196
1043,0.0
2,1, 1, 1, 0, 7, 0.00,60.00,Holiday
31,7595938.596677196
831,7595938.596677195
1043,0.0
2,1, 1, 1, 0, 8, 0.00,60.00,Holiday
31,6128818.596677196
831,6128818.596677195
1043,0.0
2,1, 1, 1, 0, 9, 0.00,60.00,Holiday
31,5395258.596677196
831,5395258.596677196
1043,0.0
2,1, 1, 1, 0,10, 0.00,60.00,Holiday
31,5395258.596677196
831,5395258.596677196
1043,0.0
2,1, 1, 1, 0,11, 0.00,60.00,Holiday
31,5395258.596677196
831,5395258.596677196
1043,0.0
2,1, 1, 1, 0,12, 0.00,60.00,Holiday
31,5395258.596677196
831,5395258.596677196
1043,0.0
2,1, 1, 1, 0,13, 0.00,60.00,Holiday
31,5395258.596677196
831,5395258.596677196
1043,0.0
2,1, 1, 1, 0,14, 0.00,60.00,Holiday
31,5395258.596677196
831,5395258.596677196
1043,0.0
2,1, 1, 1, 0,15, 0.00,60.00,Holiday
31,5395258.596677196
831,5395258.596677196
1043,0.0
2,1, 1, 1, 0,16, 0.00,60.00,Holiday
31,5395258.596677196
831,5395258.596677196
1043,0.0
2,1, 1, 1, 0,17, 0.00,60.00,Holiday
31,6128818.596677196
831,6128818.596677196
1043,0.0
2,1, 1, 1, 0,18, 0.00,60.00,Holiday
31,7595938.596677196
831,7595938.596677195
1043,0.0
2,1, 1, 1, 0,19, 0.00,60.00,Holiday
31,7595938.596677196
831,7595938.596677195
1043,0.0
2,1, 1, 1, 0,20, 0.00,60.00,Holiday
31,6794038.596677196
831,6794038.596677196
1043,0.0
2,1, 1, 1, 0,21, 0.00,60.00,Holiday
31,6794038.596677196
831,6794038.596677196
1043,0.0
2,1, 1, 1, 0,22, 0.00,60.00,Holiday
31,6794038.596677196
831,6794038.596677196
1043,0.0
2,1, 1, 1, 0,23, 0.00,60.00,Holiday
31,6794038.596677196
831,6794038.596677196
1043,0.0
2,1, 1, 1, 0,24, 0.00,60.00,Holiday
31,6794038.596677196
831,6794038.596677196
1043,0.0
2,2, 1, 2, 0, 1, 0.00,60.00,Monday
31,9469604.825749658
831,9469604.825749658
1043,0.0
2,2, 1, 2, 0, 2, 0.00,60.00,Monday
31,9469604.825749658
831,9469604.825749658
1043,0.0
2,2, 1, 2, 0, 3, 0.00,60.00,Monday
31,9469604.825749658
831,9469604.825749658
1043,0.0
2,2, 1, 2, 0, 4, 0.00,60.00,Monday
31,9469604.825749658
831,9469604.825749658
1043,0.0
2,2, 1, 2, 0, 5, 0.00,60.00,Monday
31,9469604.825749658
831,9469604.825749658
1043,0.0
2,2, 1, 2, 0, 6, 0.00,60.00,Monday
31,9469604.825749658
831,9469604.825749658
1043,0.0
2,2, 1, 2, 0, 7, 0.00,60.00,Monday
31,33530914.83730617
831,33530914.83730616
1043,6145906.307501668
2,2, 1, 2, 0, 8, 0.00,60.00,Monday
31,39218447.2934526
831,39218447.2934526
1043,7596708.440319806
2,2, 1, 2, 0, 9, 0.00,60.00,Monday
31,39679256.95012618
831,39679256.95012618
1043,0.0
2,2, 1, 2, 0,10, 0.00,60.00,Monday
31,34912165.41255285
831,34912165.41255285
1043,0.0
2,2, 1, 2, 0,11, 0.00,60.00,Monday
31,32202336.844583215
831,32202336.844583215
1043,0.0
2,2, 1, 2, 0,12, 0.00,60.00,Monday
31,30563222.982350086
831,30563222.98235009
1043,0.0
2,2, 1, 2, 0,13, 0.00,60.00,Monday
31,30269079.21530048
831,30269079.21530048
1043,0.0
2,2, 1, 2, 0,14, 0.00,60.00,Monday
31,30827394.742168368
831,30827394.742168368
1043,0.0
2,2, 1, 2, 0,15, 0.00,60.00,Monday
31,30729933.815588219
831,30729933.815588226
1043,0.0
2,2, 1, 2, 0,16, 0.00,60.00,Monday
31,30663159.518184194
831,30663159.518184209
1043,0.0
2,2, 1, 2, 0,17, 0.00,60.00,Monday
31,32765020.907442776
831,32765020.907442787
1043,0.0
2,2, 1, 2, 0,18, 0.00,60.00,Monday
31,27802729.31020411
831,27802729.310204109
1043,0.0
2,2, 1, 2, 0,19, 0.00,60.00,Monday
31,25700135.925879454
831,25700135.92587945
1043,0.0
2,2, 1, 2, 0,20, 0.00,60.00,Monday
31,11853154.258345897
831,11853154.258345895
1043,0.0
2,2, 1, 2, 0,21, 0.00,60.00,Monday
31,10637784.395628443
831,10637784.395628443
1043,0.0
2,2, 1, 2, 0,22, 0.00,60.00,Monday
31,10637784.395628443
831,10637784.395628443
1043,0.0
2,2, 1, 2, 0,23, 0.00,60.00,Monday
31,9543951.519120457
831,9543951.519120455
1043,0.0
2,2, 1, 2, 0,24, 0.00,60.00,Monday
31,7197449.08321209
831,7197449.08321209
1043,0.0
2,3, 1, 3, 0, 1, 0.00,60.00,Tuesday
31,9469604.825749658
831,9469604.825749658
1043,0.0
2,3, 1, 3, 0, 2, 0.00,60.00,Tuesday
31,9469604.825749658
831,9469604.825749658
1043,0.0
2,3, 1, 3, 0, 3, 0.00,60.00,Tuesday
31,9469604.825749658
831,9469604.825749658
1043,0.0
2,3, 1, 3, 0, 4, 0.00,60.00,Tuesday
31,9469604.825749658
831,9469604.825749658
1043,0.0
2,3, 1, 3, 0, 5, 0.00,60.00,Tuesday
31,9469604.825749658
831,9469604.825749658
1043,0.0
2,3, 1, 3, 0, 6, 0.00,60.00,Tuesday
31,9469604.825749658
831,9469604.825749658
1043,0.0
2,3, 1, 3, 0, 7, 0.00,60.00,Tuesday
31,31220009.156160505
831,31220009.156160505
1043,4489462.881393621
2,3, 1, 3, 0, 8, 0.00,60.00,Tuesday
31,36711160.619374427
831,36711160.619374427
1043,7985330.507138541
2,3, 1, 3, 0, 9, 0.00,60.00,Tuesday
31,35792772.594056058
831,35792772.594056058
1043,0.0
2,3, 1, 3, 0,10, 0.00,60.00,Tuesday
31,32019885.95949944
831,32019885.959499446
1043,0.0
2,3, 1, 3, 0,11, 0.00,60.00,Tuesday
31,30857187.265183856
831,30857187.26518386
1043,0.0
2,3, 1, 3, 0,12, 0.00,60.00,Tuesday
31,29795455.99767162
831,29795455.99767162
1043,0.0
2,3, 1, 3, 0,13, 0.00,60.00,Tuesday
31,27831739.49929711
831,27831739.49929711
1043,0.0
2,3, 1, 3, 0,14, 0.00,60.00,Tuesday
31,30478740.205012785
831,30478740.20501279
1043,0.0
2,3, 1, 3, 0,15, 0.00,60.00,Tuesday
31,30441650.35681363
831,30441650.356813633
1043,0.0
2,3, 1, 3, 0,16, 0.00,60.00,Tuesday
31,30482561.493960464
831,30482561.493960468
1043,0.0
2,3, 1, 3, 0,17, 0.00,60.00,Tuesday
31,31901988.67507898
831,31901988.675078989
1043,0.0
2,3, 1, 3, 0,18, 0.00,60.00,Tuesday
31,23904990.47412927
831,23904990.474129268
1043,0.0
2,3, 1, 3, 0,19, 0.00,60.00,Tuesday
31,19271736.42670112
831,19271736.426701115
1043,0.0
2,3, 1, 3, 0,20, 0.00,60.00,Tuesday
31,11853154.258345897
831,11853154.258345895
1043,0.0
2,3, 1, 3, 0,21, 0.00,60.00,Tuesday
31,10637784.395628443
831,10637784.395628443
1043,0.0
2,3, 1, 3, 0,22, 0.00,60.00,Tuesday
31,10637784.395628443
831,10637784.395628443
1043,0.0
2,3, 1, 3, 0,23, 0.00,60.00,Tuesday
31,9543951.519120457
831,9543951.519120455
1043,0.0
2,3, 1, 3, 0,24, 0.00,60.00,Tuesday
31,7197449.08321209
831,7197449.08321209
1043,0.0
2,4, 1, 4, 0, 1, 0.00,60.00,Wednesday
31,9469604.825749658
831,9469604.825749658
1043,0.0
2,4, 1, 4, 0, 2, 0.00,60.00,Wednesday
31,9469604.825749658
831,9469604.825749658
1043,0.0
2,4, 1, 4, 0, 3, 0.00,60.00,Wednesday
31,9469604.825749658
831,9469604.825749658
1043,0.0
2,4, 1, 4, 0, 4, 0.00,60.00,Wednesday
31,9469604.825749658
831,9469604.825749658
1043,0.0
2,4, 1, 4, 0, 5, 0.00,60.00,Wednesday
31,9469604.825749658
831,9469604.825749658
1043,0.0
2,4, 1, 4, 0, 6, 0.00,60.00,Wednesday
31,9469604.825749658
831,9469604.825749658
1043,0.0
2,4, 1, 4, 0, 7, 0.00,60.00,Wednesday
31,24651429.46561091
831,24651429.46561091
1043,1784836.6945974029
2,4, 1, 4, 0, 8, 0.00,60.00,Wednesday
31,27604373.447463328
831,27604373.44746332
1043,0.0
2,4, 1, 4, 0, 9, 0.00,60.00,Wednesday
31,30172601.9484109
831,30172601.9484109
1043,0.0
2,4, 1, 4, 0,10, 0.00,60.00,Wednesday
31,29749065.811449037
831,29749065.81144904
1043,0.0
2,4, 1, 4, 0,11, 0.00,60.00,Wednesday
31,29951383.319778239
831,29951383.319778239
1043,0.0
2,4, 1, 4, 0,12, 0.00,60.00,Wednesday
31,30810239.44278633
831,30810239.442786337
1043,0.0
2,4, 1, 4, 0,13, 0.00,60.00,Wednesday
31,29096995.797466585
831,29096995.797466577
1043,0.0
2,4, 1, 4, 0,14, 0.00,60.00,Wednesday
31,32497835.769091704
831,32497835.769091704
1043,0.0
2,4, 1, 4, 0,15, 0.00,60.00,Wednesday
31,33173667.437788354
831,33173667.43778836
1043,0.0
2,4, 1, 4, 0,16, 0.00,60.00,Wednesday
31,33229634.11491181
831,33229634.11491181
1043,0.0
2,4, 1, 4, 0,17, 0.00,60.00,Wednesday
31,33958246.38739664
831,33958246.38739664
1043,0.0
2,4, 1, 4, 0,18, 0.00,60.00,Wednesday
31,23844321.1017286
831,23844321.10172859
1043,0.0
2,4, 1, 4, 0,19, 0.00,60.00,Wednesday
31,17921482.22691776
831,17921482.226917756
1043,0.0
2,4, 1, 4, 0,20, 0.00,60.00,Wednesday
31,10953154.258345897
831,10953154.258345895
1043,0.0
2,4, 1, 4, 0,21, 0.00,60.00,Wednesday
31,9737784.395628443
831,9737784.395628443
1043,0.0
2,4, 1, 4, 0,22, 0.00,60.00,Wednesday
31,9737784.395628443
831,9737784.395628443
1043,0.0
2,4, 1, 4, 0,23, 0.00,60.00,Wednesday
31,8643951.519120457
831,8643951.519120455
1043,0.0
2,4, 1, 4, 0,24, 0.00,60.00,Wednesday
31,7047449.08321209
831,7047449.08321209
1043,0.0
2,5, 1, 5, 0, 1, 0.00,60.00,Thursday
31,9469604.825749658
831,9469604.825749658
1043,0.0
2,5, 1, 5, 0, 2, 0.00,60.00,Thursday
31,9469604.825749658
831,9469604.825749658
1043,0.0
2,5, 1, 5, 0, 3, 0.00,60.00,Thursday
31,9469604.825749658
831,9469604.825749658
1043,0.0
2,5, 1, 5, 0, 4, 0.00,60.00,Thursday
31,9469604.825749658
831,9469604.825749658
1043,0.0
2,5, 1, 5, 0, 5, 0.00,60.00,Thursday
31,8869604.825749658
831,8869604.825749658
1043,0.0
2,5, 1, 5, 0, 6, 0.00,60.00,Thursday
31,8569604.825749658
831,8569604.825749658
1043,0.0
2,5, 1, 5, 0, 7, 0.00,60.00,Thursday
31,20880741.417241277
831,20880741.41724127
1043,0.0
2,5, 1, 5, 0, 8, 0.00,60.00,Thursday
31,22788382.317800225
831,22788382.317800218
1043,0.0
2,5, 1, 5, 0, 9, 0.00,60.00,Thursday
31,29951285.43159182
831,29951285.43159182
1043,0.0
2,5, 1, 5, 0,10, 0.00,60.00,Thursday
31,29744992.615922627
831,29744992.615922627
1043,0.0
2,5, 1, 5, 0,11, 0.00,60.00,Thursday
31,30447865.802337406
831,30447865.802337406
1043,0.0
2,5, 1, 5, 0,12, 0.00,60.00,Thursday
31,31234324.230679946
831,31234324.230679949
1043,0.0
2,5, 1, 5, 0,13, 0.00,60.00,Thursday
31,28462993.260955588
831,28462993.260955588
1043,0.0
2,5, 1, 5, 0,14, 0.00,60.00,Thursday
31,31624652.053239749
831,31624652.053239757
1043,0.0
2,5, 1, 5, 0,15, 0.00,60.00,Thursday
31,31932710.300641024
831,31932710.300641024
1043,0.0
2,5, 1, 5, 0,16, 0.00,60.00,Thursday
31,31810222.70382686
831,31810222.70382686
1043,0.0
2,5, 1, 5, 0,17, 0.00,60.00,Thursday
31,32560365.231899479
831,32560365.231899486
1043,0.0
2,5, 1, 5, 0,18, 0.00,60.00,Thursday
31,24422016.218386394
831,24422016.218386383
1043,0.0
2,5, 1, 5, 0,19, 0.00,60.00,Thursday
31,19080069.775580344
831,19080069.77558034
1043,0.0
2,5, 1, 5, 0,20, 0.00,60.00,Thursday
31,11853154.258345897
831,11853154.258345895
1043,0.0
2,5, 1, 5, 0,21, 0.00,60.00,Thursday
31,10487784.395628443
831,10487784.395628443
1043,0.0
2,5, 1, 5, 0,22, 0.00,60.00,Thursday
31,10637784.395628443
831,10637784.395628443
1043,0.0
2,5, 1, 5, 0,23, 0.00,60.00,Thursday
31,9543951.519120457
831,9543951.519120455
1043,0.0
2,5, 1, 5, 0,24, 0.00,60.00,Thursday
31,7197449.08321209
831,7197449.08321209
1043,0.0
2,6, 1, 6, 0, 1, 0.00,60.00,Friday
31,9469604.825749658
831,9469604.825749658
1043,0.0
2,6, 1, 6, 0, 2, 0.00,60.00,Friday
31,9469604.825749658
831,9469604.825749658
1043,0.0
2,6, 1, 6, 0, 3, 0.00,60.00,Friday
31,9469604.825749658
831,9469604.825749658
1043,0.0
2,6, 1, 6, 0, 4, 0.00,60.00,Friday
31,9469604.825749658
831,9469604.825749658
1043,0.0
2,6, 1, 6, 0, 5, 0.00,60.00,Friday
31,9469604.825749658
831,9469604.825749658
1043,0.0
2,6, 1, 6, 0, 6, 0.00,60.00,Friday
31,9469604.825749658
831,9469604.825749658
1043,0.0
2,6, 1, 6, 0, 7, 0.00,60.00,Friday
31,23450566.347823409
831,23450566.347823409
1043,1870717.2480301876
2,6, 1, 6, 0, 8, 0.00,60.00,Friday
31,33094403.71169535
831,33094403.711695356
1043,483671.3080823373
2,6, 1, 6, 0, 9, 0.00,60.00,Friday
31,33261138.26052661
831,33261138.260526606
1043,0.0
2,6, 1, 6, 0,10, 0.00,60.00,Friday
31,31502756.071533435
831,31502756.07153344
1043,0.0
2,6, 1, 6, 0,11, 0.00,60.00,Friday
31,30897219.703660266
831,30897219.703660266
1043,0.0
2,6, 1, 6, 0,12, 0.00,60.00,Friday
31,30825649.925733244
831,30825649.925733247
1043,0.0
2,6, 1, 6, 0,13, 0.00,60.00,Friday
31,32100478.84508706
831,32100478.845087064
1043,0.0
2,6, 1, 6, 0,14, 0.00,60.00,Friday
31,30691937.58560582
831,30691937.585605824
1043,0.0
2,6, 1, 6, 0,15, 0.00,60.00,Friday
31,30732257.072446445
831,30732257.072446448
1043,0.0
2,6, 1, 6, 0,16, 0.00,60.00,Friday
31,31322670.318040238
831,31322670.318040246
1043,0.0
2,6, 1, 6, 0,17, 0.00,60.00,Friday
31,32765020.907442776
831,32765020.907442787
1043,0.0
2,6, 1, 6, 0,18, 0.00,60.00,Friday
31,29728902.791257219
831,29728902.791257215
1043,0.0
2,6, 1, 6, 0,19, 0.00,60.00,Friday
31,25718508.000307584
831,25718508.000307576
1043,0.0
2,6, 1, 6, 0,20, 0.00,60.00,Friday
31,11853154.258345897
831,11853154.258345895
1043,0.0
2,6, 1, 6, 0,21, 0.00,60.00,Friday
31,10637784.395628443
831,10637784.395628443
1043,0.0
2,6, 1, 6, 0,22, 0.00,60.00,Friday
31,10637784.395628443
831,10637784.395628443
1043,0.0
2,6, 1, 6, 0,23, 0.00,60.00,Friday
31,9543951.519120457
831,9543951.519120455
1043,0.0
2,6, 1, 6, 0,24, 0.00,60.00,Friday
31,7197449.08321209
831,7197449.08321209
1043,0.0
2,7, 1, 7, 0, 1, 0.00,60.00,Saturday
31,6404338.596677196
831,6404338.596677196
1043,0.0
2,7, 1, 7, 0, 2, 0.00,60.00,Saturday
31,6404338.596677196
831,6404338.596677196
1043,0.0
2,7, 1, 7, 0, 3, 0.00,60.00,Saturday
31,6404338.596677196
831,6404338.596677196
1043,0.0
2,7, 1, 7, 0, 4, 0.00,60.00,Saturday
31,6404338.596677196
831,6404338.596677196
1043,0.0
2,7, 1, 7, 0, 5, 0.00,60.00,Saturday
31,6404338.596677196
831,6404338.596677196
1043,0.0
2,7, 1, 7, 0, 6, 0.00,60.00,Saturday
31,6404338.596677196
831,6404338.596677196
1043,0.0
2,7, 1, 7, 0, 7, 0.00,60.00,Saturday
31,7595938.596677196
831,7595938.596677195
1043,0.0
2,7, 1, 7, 0, 8, 0.00,60.00,Saturday
31,6128818.596677196
831,6128818.596677195
1043,0.0
2,7, 1, 7, 0, 9, 0.00,60.00,Saturday
31,5395258.596677196
831,5395258.596677196
1043,0.0
2,7, 1, 7, 0,10, 0.00,60.00,Saturday
31,5395258.596677196
831,5395258.596677196
1043,0.0
2,7, 1, 7, 0,11, 0.00,60.00,Saturday
31,5395258.596677196
831,5395258.596677196
1043,0.0
2,7, 1, 7, 0,12, 0.00,60.00,Saturday
31,5395258.596677196
831,5395258.596677196
1043,0.0
2,7, 1, 7, 0,13, 0.00,60.00,Saturday
31,5395258.596677196
831,5395258.596677196
1043,0.0
2,7, 1, 7, 0,14, 0.00,60.00,Saturday
31,5395258.596677196
831,5395258.596677196
1043,0.0
2,7, 1, 7, 0,15, 0.00,60.00,Saturday
31,5395258.596677196
831,5395258.596677196
1043,0.0
2,7, 1, 7, 0,16, 0.00,60.00,Saturday
31,5395258.596677196
831,5395258.596677196
1043,0.0
2,7, 1, 7, 0,17, 0.00,60.00,Saturday
31,6128818.596677196
831,6128818.596677196
1043,0.0
2,7, 1, 7, 0,18, 0.00,60.00,Saturday
31,7595938.596677196
831,7595938.596677195
1043,0.0
2,7, 1, 7, 0,19, 0.00,60.00,Saturday
31,7595938.596677196
831,7595938.596677195
1043,0.0
2,7, 1, 7, 0,20, 0.00,60.00,Saturday
31,6794038.596677196
831,6794038.596677196
1043,0.0
2,7, 1, 7, 0,21, 0.00,60.00,Saturday
31,6794038.596677196
831,6794038.596677196
1043,0.0
2,7, 1, 7, 0,22, 0.00,60.00,Saturday
31,6794038.596677196
831,6794038.596677196
1043,0.0
2,7, 1, 7, 0,23, 0.00,60.00,Saturday
31,6794038.596677196
831,6794038.596677196
1043,0.0
2,7, 1, 7, 0,24, 0.00,60.00,Saturday
31,6794038.596677196
831,6794038.596677196
1043,0.0
2,8, 1, 8, 0, 1, 0.00,60.00,Sunday
31,6404338.596677196
831,6404338.596677196
1043,0.0
2,8, 1, 8, 0, 2, 0.00,60.00,Sunday
31,6404338.596677196
831,6404338.596677196
1043,0.0
2,8, 1, 8, 0, 3, 0.00,60.00,Sunday
31,6404338.596677196
831,6404338.596677196
1043,0.0
2,8, 1, 8, 0, 4, 0.00,60.00,Sunday
31,6404338.596677196
831,6404338.596677196
1043,0.0
2,8, 1, 8, 0, 5, 0.00,60.00,Sunday
31,6404338.596677196
831,6404338.596677196
1043,0.0
2,8, 1, 8, 0, 6, 0.00,60.00,Sunday
31,6404338.596677196
831,6404338.596677196
1043,0.0
2,8, 1, 8, 0, 7, 0.00,60.00,Sunday
31,7595938.596677196
831,7595938.596677195
1043,0.0
2,8, 1, 8, 0, 8, 0.00,60.00,Sunday
31,6128818.596677196
831,6128818.596677195
1043,0.0
2,8, 1, 8, 0, 9, 0.00,60.00,Sunday
31,5395258.596677196
831,5395258.596677196
1043,0.0
2,8, 1, 8, 0,10, 0.00,60.00,Sunday
31,5395258.596677196
831,5395258.596677196
1043,0.0
2,8, 1, 8, 0,11, 0.00,60.00,Sunday
31,5395258.596677196
831,5395258.596677196
1043,0.0
2,8, 1, 8, 0,12, 0.00,60.00,Sunday
31,5395258.596677196
831,5395258.596677196
1043,0.0
2,8, 1, 8, 0,13, 0.00,60.00,Sunday
31,5395258.596677196
831,5395258.596677196
1043,0.0
2,8, 1, 8, 0,14, 0.00,60.00,Sunday
31,5395258.596677196
831,5395258.596677196
1043,0.0
2,8, 1, 8, 0,15, 0.00,60.00,Sunday
31,5395258.596677196
831,5395258.596677196
1043,0.0
2,8, 1, 8, 0,16, 0.00,60.00,Sunday
31,5395258.596677196
831,5395258.596677196
1043,0.0
2,8, 1, 8, 0,17, 0.00,60.00,Sunday
31,6128818.596677196
831,6128818.596677196
1043,0.0
2,8, 1, 8, 0,18, 0.00,60.00,Sunday
31,7595938.596677196
831,7595938.596677195
1043,0.0
2,8, 1, 8, 0,19, 0.00,60.00,Sunday
31,7595938.596677196
831,7595938.596677195
1043,0.0
2,8, 1, 8, 0,20, 0.00,60.00,Sunday
31,6794038.596677196
831,6794038.596677196
1043,0.0
2,8, 1, 8, 0,21, 0.00,60.00,Sunday
31,6794038.596677196
831,6794038.596677196
1043,0.0
2,8, 1, 8, 0,22, 0.00,60.00,Sunday
31,6794038.596677196
831,6794038.596677196
1043,0.0
2,8, 1, 8, 0,23, 0.00,60.00,Sunday
31,6794038.596677196
831,6794038.596677196
1043,0.0
2,8, 1, 8, 0,24, 0.00,60.00,Sunday
31,6794038.596677196
831,6794038.596677196
1043,0.0
2,9, 1, 9, 0, 1, 0.00,60.00,Monday
31,9469604.825749658
831,9469604.825749658
1043,0.0
2,9, 1, 9, 0, 2, 0.00,60.00,Monday
31,9469604.825749658
831,9469604.825749658
1043,0.0
2,9, 1, 9, 0, 3, 0.00,60.00,Monday
31,9469604.825749658
831,9469604.825749658
1043,0.0
2,9, 1, 9, 0, 4, 0.00,60.00,Monday
31,9469604.825749658
831,9469604.825749658
1043,0.0
2,9, 1, 9, 0, 5, 0.00,60.00,Monday
31,9469604.825749658
831,9469604.825749658
1043,0.0
2,9, 1, 9, 0, 6, 0.00,60.00,Monday
31,9469604.825749658
831,9469604.825749658
1043,0.0
2,9, 1, 9, 0, 7, 0.00,60.00,Monday
31,37406272.922535117
831,37406272.922535117
1043,20014206.76432859
2,9, 1, 9, 0, 8, 0.00,60.00,Monday
31,40862026.897458847
831,40862026.897458847
1043,22798360.27785614
2,9, 1, 9, 0, 9, 0.00,60.00,Monday
31,41024191.479475099
831,41024191.4794751
1043,38984.62437750149
2,9, 1, 9, 0,10, 0.00,60.00,Monday
31,34244430.182832207
831,34244430.182832207
1043,0.0
2,9, 1, 9, 0,11, 0.00,60.00,Monday
31,32190353.17022965
831,32190353.17022966
1043,0.0
2,9, 1, 9, 0,12, 0.00,60.00,Monday
31,30940059.762866245
831,30940059.762866249
1043,0.0
2,9, 1, 9, 0,13, 0.00,60.00,Monday
31,28005295.608272267
831,28005295.608272267
1043,0.0
2,9, 1, 9, 0,14, 0.00,60.00,Monday
31,29429081.772364949
831,29429081.772364949
1043,0.0
2,9, 1, 9, 0,15, 0.00,60.00,Monday
31,29957545.459976634
831,29957545.45997663
1043,0.0
2,9, 1, 9, 0,16, 0.00,60.00,Monday
31,30317045.922624448
831,30317045.922624448
1043,0.0
2,9, 1, 9, 0,17, 0.00,60.00,Monday
31,32602663.349690498
831,32602663.34969051
1043,0.0
2,9, 1, 9, 0,18, 0.00,60.00,Monday
31,27661475.081543905
831,27661475.081543898
1043,0.0
2,9, 1, 9, 0,19, 0.00,60.00,Monday
31,25295730.077055839
831,25295730.077055828
1043,0.0
2,9, 1, 9, 0,20, 0.00,60.00,Monday
31,11853154.258345897
831,11853154.258345895
1043,0.0
2,9, 1, 9, 0,21, 0.00,60.00,Monday
31,10637784.395628443
831,10637784.395628443
1043,0.0
2,9, 1, 9, 0,22, 0.00,60.00,Monday
31,10637784.395628443
831,10637784.395628443
1043,0.0
2,9, 1, 9, 0,23, 0.00,60.00,Monday
31,9543951.519120457
831,9543951.519120455
1043,0.0
2,9, 1, 9, 0,24, 0.00,60.00,Monday
31,7197449.08321209
831,7197449.08321209
1043,0.0
2,10, 1,10, 0, 1, 0.00,60.00,Tuesday
31,9469604.825749658
831,9469604.825749658
1043,0.0
2,10, 1,10, 0, 2, 0.00,60.00,Tuesday
31,9469604.825749658
831,9469604.825749658
1043,0.0
2,10, 1,10, 0, 3, 0.00,60.00,Tuesday
31,9469604.825749658
831,9469604.825749658
1043,0.0
2,10, 1,10, 0, 4, 0.00,60.00,Tuesday
31,9469604.825749658
831,9469604.825749658
1043,0.0
2,10, 1,10, 0, 5, 0.00,60.00,Tuesday
31,9469604.825749658
831,9469604.825749658
1043,0.0
2,10, 1,10, 0, 6, 0.00,60.00,Tuesday
31,9469604.825749658
831,9469604.825749658
1043,0.0
2,10, 1,10, 0, 7, 0.00,60.00,Tuesday
31,31571227.04429526
831,31571227.04429526
1043,6104364.054858825
2,10, 1,10, 0, 8, 0.00,60.00,Tuesday
31,36535559.54535826
831,36535559.545358259
1043,10388803.339439603
2,10, 1,10, 0, 9, 0.00,60.00,Tuesday
31,35938996.427280899
831,35938996.4272809
1043,0.0
2,10, 1,10, 0,10, 0.00,60.00,Tuesday
31,32054631.768696134
831,32054631.768696134
1043,0.0
2,10, 1,10, 0,11, 0.00,60.00,Tuesday
31,30945409.334694618
831,30945409.334694618
1043,0.0
2,10, 1,10, 0,12, 0.00,60.00,Tuesday
31,30496372.685364397
831,30496372.685364397
1043,0.0
2,10, 1,10, 0,13, 0.00,60.00,Tuesday
31,28151119.25483772
831,28151119.254837719
1043,0.0
2,10, 1,10, 0,14, 0.00,60.00,Tuesday
31,30962937.708879349
831,30962937.708879349
1043,0.0
2,10, 1,10, 0,15, 0.00,60.00,Tuesday
31,30684932.46213306
831,30684932.46213306
1043,0.0
2,10, 1,10, 0,16, 0.00,60.00,Tuesday
31,30769744.990899669
831,30769744.990899669
1043,0.0
2,10, 1,10, 0,17, 0.00,60.00,Tuesday
31,32139820.358557188
831,32139820.358557196
1043,0.0
2,10, 1,10, 0,18, 0.00,60.00,Tuesday
31,25060827.31996306
831,25060827.319963054
1043,0.0
2,10, 1,10, 0,19, 0.00,60.00,Tuesday
31,20513775.599837614
831,20513775.59983761
1043,0.0
2,10, 1,10, 0,20, 0.00,60.00,Tuesday
31,11853154.258345897
831,11853154.258345895
1043,0.0
2,10, 1,10, 0,21, 0.00,60.00,Tuesday
31,10637784.395628443
831,10637784.395628443
1043,0.0
2,10, 1,10, 0,22, 0.00,60.00,Tuesday
31,10637784.395628443
831,10637784.395628443
1043,0.0
2,10, 1,10, 0,23, 0.00,60.00,Tuesday
31,9543951.519120457
831,9543951.519120455
1043,0.0
2,10, 1,10, 0,24, 0.00,60.00,Tuesday
31,7197449.08321209
831,7197449.08321209
1043,0.0
2,11, 1,11, 0, 1, 0.00,60.00,Wednesday
31,9469604.825749658
831,9469604.825749658
1043,0.0
2,11, 1,11, 0, 2, 0.00,60.00,Wednesday
31,9469604.825749658
831,9469604.825749658
1043,0.0
2,11, 1,11, 0, 3, 0.00,60.00,Wednesday
31,9469604.825749658
831,9469604.825749658
1043,0.0
2,11, 1,11, 0, 4, 0.00,60.00,Wednesday
31,9469604.825749658
831,9469604.825749658
1043,0.0
2,11, 1,11, 0, 5, 0.00,60.00,Wednesday
31,9469604.825749658
831,9469604.825749658
1043,0.0
2,11, 1,11, 0, 6, 0.00,60.00,Wednesday
31,9469604.825749658
831,9469604.825749658
1043,0.0
2,11, 1,11, 0, 7, 0.00,60.00,Wednesday
31,25380555.124318176
831,25380555.124318176
1043,2222788.4507790345
2,11, 1,11, 0, 8, 0.00,60.00,Wednesday
31,31242325.620766745
831,31242325.620766738
1043,0.0
2,11, 1,11, 0, 9, 0.00,60.00,Wednesday
31,32049412.085346678
831,32049412.085346674
1043,0.0
2,11, 1,11, 0,10, 0.00,60.00,Wednesday
31,30000594.17877525
831,30000594.17877525
1043,0.0
2,11, 1,11, 0,11, 0.00,60.00,Wednesday
31,30065815.575756354
831,30065815.575756357
1043,0.0
2,11, 1,11, 0,12, 0.00,60.00,Wednesday
31,30892876.183553704
831,30892876.183553708
1043,0.0
2,11, 1,11, 0,13, 0.00,60.00,Wednesday
31,28833107.778911406
831,28833107.7789114
1043,0.0
2,11, 1,11, 0,14, 0.00,60.00,Wednesday
31,31678150.43340587
831,31678150.433405874
1043,0.0
2,11, 1,11, 0,15, 0.00,60.00,Wednesday
31,32406891.713430928
831,32406891.71343093
1043,0.0
2,11, 1,11, 0,16, 0.00,60.00,Wednesday
31,32745187.36428404
831,32745187.36428404
1043,0.0
2,11, 1,11, 0,17, 0.00,60.00,Wednesday
31,33490004.353906745
831,33490004.353906748
1043,0.0
2,11, 1,11, 0,18, 0.00,60.00,Wednesday
31,23822016.218386394
831,23822016.218386383
1043,0.0
2,11, 1,11, 0,19, 0.00,60.00,Wednesday
31,17958291.962274579
831,17958291.962274575
1043,0.0
2,11, 1,11, 0,20, 0.00,60.00,Wednesday
31,11403154.258345897
831,11403154.258345895
1043,0.0
2,11, 1,11, 0,21, 0.00,60.00,Wednesday
31,10637784.395628443
831,10637784.395628443
1043,0.0
2,11, 1,11, 0,22, 0.00,60.00,Wednesday
31,10637784.395628443
831,10637784.395628443
1043,0.0
2,11, 1,11, 0,23, 0.00,60.00,Wednesday
31,9543951.519120457
831,9543951.519120455
1043,0.0
2,11, 1,11, 0,24, 0.00,60.00,Wednesday
31,7197449.08321209
831,7197449.08321209
1043,0.0
2,12, 1,12, 0, 1, 0.00,60.00,Thursday
31,9469604.825749658
831,9469604.825749658
1043,0.0
2,12, 1,12, 0, 2, 0.00,60.00,Thursday
31,9469604.825749658
831,9469604.825749658
1043,0.0
2,12, 1,12, 0, 3, 0.00,60.00,Thursday
31,9469604.825749658
831,9469604.825749658
1043,0.0
2,12, 1,12, 0, 4, 0.00,60.00,Thursday
31,9469604.825749658
831,9469604.825749658
1043,0.0
2,12, 1,12, 0, 5, 0.00,60.00,Thursday