Program Version,EnergyPlus, Version 8.6.0-198c6a3cff, YMD=2019.03.03 17:35
1,5,Environment Title[],Latitude[deg],Longitude[deg],Time Zone[],Elevation[m]
2,6,Day of Simulation[],Month[],Day of Month[],DST Indicator[1=yes 0=no],Hour[],StartMinute[],EndMinute[],DayType
3,3,Cumulative Day of Simulation[],Month[],Day of Month[],DST Indicator[1=yes 0=no],DayType  ! When Daily Meters Requested
4,2,Cumulative Days of Simulation[],Month[]  ! When Monthly Meters Requested
5,1,Cumulative Days of Simulation[] ! When Run Period Meters Requested
31,1,Electricity:Facility [J] !Hourly
831,1,ElectricityNet:Facility [J] !Hourly
1043,1,Gas:Facility [J] !Hourly
End of Data Dictionary
1,DENVER-AURORA-BUCKLEY.AFB_CO_USA ANN HTG 99.6% CONDNS DB,  40.13,-105.24,  -7.00,1689.00
2,1,12,21, 0, 1, 0.00,60.00,WinterDesignDay
31,9035553.258498928
831,9035553.25849893
1043,30783459.257312016
2,1,12,21, 0, 2, 0.00,60.00,WinterDesignDay
31,8259008.4612683
831,8259008.4612683
1043,25927703.1271834
2,1,12,21, 0, 3, 0.00,60.00,WinterDesignDay
31,9292913.50453174
831,9292913.50453174
1043,30304336.11377755
2,1,12,21, 0, 4, 0.00,60.00,WinterDesignDay
31,8259008.4612683
831,8259008.4612683
1043,26267492.487635103
2,1,12,21, 0, 5, 0.00,60.00,WinterDesignDay
31,9292913.50453174
831,9292913.50453174
1043,30472684.874091794
2,1,12,21, 0, 6, 0.00,60.00,WinterDesignDay
31,8259008.4612683
831,8259008.4612683
1043,26327540.076767308
2,1,12,21, 0, 7, 0.00,60.00,WinterDesignDay
31,10484513.50453174
831,10484513.504531738
1043,30508405.260140744
2,1,12,21, 0, 8, 0.00,60.00,WinterDesignDay
31,7983488.461330578
831,7983488.461330578
1043,24035147.07945417
2,1,12,21, 0, 9, 0.00,60.00,WinterDesignDay
31,8283833.504594017
831,8283833.504594017
1043,27456226.83988826
2,1,12,21, 0,10, 0.00,60.00,WinterDesignDay
31,7249928.461330578
831,7249928.461330578
1043,24026395.47270254
2,1,12,21, 0,11, 0.00,60.00,WinterDesignDay
31,8283833.504594017
831,8283833.504594017
1043,27443193.59803262
2,1,12,21, 0,12, 0.00,60.00,WinterDesignDay
31,7249928.461330578
831,7249928.461330578
1043,24042215.694081248
2,1,12,21, 0,13, 0.00,60.00,WinterDesignDay
31,8283833.504594017
831,8283833.504594017
1043,27488480.895247695
2,1,12,21, 0,14, 0.00,60.00,WinterDesignDay
31,7249928.461330578
831,7249928.461330578
1043,24077983.1489061
2,1,12,21, 0,15, 0.00,60.00,WinterDesignDay
31,8283833.504594017
831,8283833.504594017
1043,27464946.036961356
2,1,12,21, 0,16, 0.00,60.00,WinterDesignDay
31,7249928.461330578
831,7249928.461330578
1043,24047025.129647878
2,1,12,21, 0,17, 0.00,60.00,WinterDesignDay
31,9384173.504594017
831,9384173.504594017
1043,27480512.42530278
2,1,12,21, 0,18, 0.00,60.00,WinterDesignDay
31,9450608.461330574
831,9450608.461330574
1043,24044915.91841328
2,1,12,21, 0,19, 0.00,60.00,WinterDesignDay
31,10484513.504594015
831,10484513.504594015
1043,30314784.232812279
2,1,12,21, 0,20, 0.00,60.00,WinterDesignDay
31,8648708.461330576
831,8648708.461330578
1043,26370910.028981449
2,1,12,21, 0,21, 0.00,60.00,WinterDesignDay
31,9682613.504594015
831,9682613.504594017
1043,30580953.304439188
2,1,12,21, 0,22, 0.00,60.00,WinterDesignDay
31,8648708.461330576
831,8648708.461330578
1043,26413894.03125908
2,1,12,21, 0,23, 0.00,60.00,WinterDesignDay
31,9682613.50453174
831,9682613.50453174
1043,30581852.273241987
2,1,12,21, 0,24, 0.00,60.00,WinterDesignDay
31,8648708.4612683
831,8648708.4612683
1043,26404468.714407967
1,DENVER-AURORA-BUCKLEY.AFB_CO_USA ANN CLG .4% CONDNS DB=>MWB,  40.13,-105.24,  -7.00,1689.00
2,1, 7,21, 0, 1, 0.00,60.00,SummerDesignDay
31,39833790.5642391
831,39833790.56423909
1043,0.0
2,1, 7,21, 0, 2, 0.00,60.00,SummerDesignDay
31,38413876.007700737
831,38413876.007700737
1043,0.0
2,1, 7,21, 0, 3, 0.00,60.00,SummerDesignDay
31,39631748.47796962
831,39631748.47796962
1043,0.0
2,1, 7,21, 0, 4, 0.00,60.00,SummerDesignDay
31,38128808.45847565
831,38128808.45847565
1043,0.0
2,1, 7,21, 0, 5, 0.00,60.00,SummerDesignDay
31,39179226.033482428
831,39179226.033482428
1043,0.0
2,1, 7,21, 0, 6, 0.00,60.00,SummerDesignDay
31,36926781.74874744
831,36926781.74874744
1043,0.0
2,1, 7,21, 0, 7, 0.00,60.00,SummerDesignDay
31,44463761.0428192
831,44463761.0428192
1043,0.0
2,1, 7,21, 0, 8, 0.00,60.00,SummerDesignDay
31,43523520.8256554
831,43523520.8256554
1043,0.0
2,1, 7,21, 0, 9, 0.00,60.00,SummerDesignDay
31,44494136.963129
831,44494136.96312899
1043,0.0
2,1, 7,21, 0,10, 0.00,60.00,SummerDesignDay
31,45932775.55622384
831,45932775.55622384
1043,0.0
2,1, 7,21, 0,11, 0.00,60.00,SummerDesignDay
31,47109789.37865109
831,47109789.37865108
1043,0.0
2,1, 7,21, 0,12, 0.00,60.00,SummerDesignDay
31,48119071.991726588
831,48119071.99172658
1043,0.0
2,1, 7,21, 0,13, 0.00,60.00,SummerDesignDay
31,49138034.37117126
831,49138034.37117126
1043,0.0
2,1, 7,21, 0,14, 0.00,60.00,SummerDesignDay
31,50115230.445313338
831,50115230.445313338
1043,0.0
2,1, 7,21, 0,15, 0.00,60.00,SummerDesignDay
31,50718154.78613649
831,50718154.7861365
1043,0.0
2,1, 7,21, 0,16, 0.00,60.00,SummerDesignDay
31,50653658.65451028
831,50653658.65451028
1043,0.0
2,1, 7,21, 0,17, 0.00,60.00,SummerDesignDay
31,50210177.85212843
831,50210177.85212843
1043,0.0
2,1, 7,21, 0,18, 0.00,60.00,SummerDesignDay
31,49632247.09732593
831,49632247.09732592
1043,0.0
2,1, 7,21, 0,19, 0.00,60.00,SummerDesignDay
31,48779475.56697111
831,48779475.56697111
1043,0.0
2,1, 7,21, 0,20, 0.00,60.00,SummerDesignDay
31,43504566.3928298
831,43504566.39282979
1043,0.0
2,1, 7,21, 0,21, 0.00,60.00,SummerDesignDay
31,41356814.508162569
831,41356814.50816256
1043,0.0
2,1, 7,21, 0,22, 0.00,60.00,SummerDesignDay
31,43194868.678291659
831,43194868.678291659
1043,0.0
2,1, 7,21, 0,23, 0.00,60.00,SummerDesignDay
31,39746208.05454571
831,39746208.05454571
1043,0.0
2,1, 7,21, 0,24, 0.00,60.00,SummerDesignDay
31,43206771.24150969
831,43206771.24150969
1043,0.0
1,Broomfield Jeffco  Boulder   S CO USA TMY3 WMO#=724699,  40.13,-105.24,  -7.00,1689.00
2,1, 1, 1, 0, 1, 0.00,60.00,Holiday
31,6404338.596677196
831,6404338.596677196
1043,0.0
2,1, 1, 1, 0, 2, 0.00,60.00,Holiday
31,6404338.596677196
831,6404338.596677196
1043,0.0
2,1, 1, 1, 0, 3, 0.00,60.00,Holiday
31,6404338.596677196
831,6404338.596677196
1043,0.0
2,1, 1, 1, 0, 4, 0.00,60.00,Holiday
31,6404338.596677196
831,6404338.596677196
1043,0.0
2,1, 1, 1, 0, 5, 0.00,60.00,Holiday
31,6404338.596677196
831,6404338.596677196
1043,0.0
2,1, 1, 1, 0, 6, 0.00,60.00,Holiday
31,6404338.596677196
831,6404338.596677196
1043,0.0
2,1, 1, 1, 0, 7, 0.00,60.00,Holiday
31,7595938.596677196
831,7595938.596677195
1043,0.0
2,1, 1, 1, 0, 8, 0.00,60.00,Holiday
31,6128818.596677196
831,6128818.596677195
1043,0.0
2,1, 1, 1, 0, 9, 0.00,60.00,Holiday
31,5395258.596677196
831,5395258.596677196
1043,0.0
2,1, 1, 1, 0,10, 0.00,60.00,Holiday
31,5395258.596677196
831,5395258.596677196
1043,0.0
2,1, 1, 1, 0,11, 0.00,60.00,Holiday
31,5395258.596677196
831,5395258.596677196
1043,0.0
2,1, 1, 1, 0,12, 0.00,60.00,Holiday
31,5395258.596677196
831,5395258.596677196
1043,0.0
2,1, 1, 1, 0,13, 0.00,60.00,Holiday
31,5395258.596677196
831,5395258.596677196
1043,0.0
2,1, 1, 1, 0,14, 0.00,60.00,Holiday
31,5395258.596677196
831,5395258.596677196
1043,0.0
2,1, 1, 1, 0,15, 0.00,60.00,Holiday
31,5395258.596677196
831,5395258.596677196
1043,0.0
2,1, 1, 1, 0,16, 0.00,60.00,Holiday
31,5395258.596677196
831,5395258.596677196
1043,0.0
2,1, 1, 1, 0,17, 0.00,60.00,Holiday
31,6128818.596677196
831,6128818.596677196
1043,0.0
2,1, 1, 1, 0,18, 0.00,60.00,Holiday
31,7595938.596677196
831,7595938.596677195
1043,0.0
2,1, 1, 1, 0,19, 0.00,60.00,Holiday
31,7595938.596677196
831,7595938.596677195
1043,0.0
2,1, 1, 1, 0,20, 0.00,60.00,Holiday
31,6794038.596677196
831,6794038.596677196
1043,0.0
2,1, 1, 1, 0,21, 0.00,60.00,Holiday
31,6794038.596677196
831,6794038.596677196
1043,0.0
2,1, 1, 1, 0,22, 0.00,60.00,Holiday
31,6794038.596677196
831,6794038.596677196
1043,0.0
2,1, 1, 1, 0,23, 0.00,60.00,Holiday
31,6794038.596677196
831,6794038.596677196
1043,0.0
2,1, 1, 1, 0,24, 0.00,60.00,Holiday
31,6794038.596677196
831,6794038.596677196
1043,0.0
2,2, 1, 2, 0, 1, 0.00,60.00,Monday
31,9469604.825749658
831,9469604.825749658
1043,0.0
2,2, 1, 2, 0, 2, 0.00,60.00,Monday
31,9469604.825749658
831,9469604.825749658
1043,0.0
2,2, 1, 2, 0, 3, 0.00,60.00,Monday
31,9469604.825749658
831,9469604.825749658
1043,0.0
2,2, 1, 2, 0, 4, 0.00,60.00,Monday
31,9469604.825749658
831,9469604.825749658
1043,0.0
2,2, 1, 2, 0, 5, 0.00,60.00,Monday
31,9469604.825749658
831,9469604.825749658
1043,0.0
2,2, 1, 2, 0, 6, 0.00,60.00,Monday
31,9469604.825749658
831,9469604.825749658
1043,0.0
2,2, 1, 2, 0, 7, 0.00,60.00,Monday
31,37412496.304506767
831,37412496.304506767
1043,10004197.085685365
2,2, 1, 2, 0, 8, 0.00,60.00,Monday
31,41704621.81096701
831,41704621.810967009
1043,9831045.381349236
2,2, 1, 2, 0, 9, 0.00,60.00,Monday
31,42352697.0697977
831,42352697.0697977
1043,0.0
2,2, 1, 2, 0,10, 0.00,60.00,Monday
31,36775653.041450757
831,36775653.041450757
1043,0.0
2,2, 1, 2, 0,11, 0.00,60.00,Monday
31,33466273.91377051
831,33466273.91377051
1043,0.0
2,2, 1, 2, 0,12, 0.00,60.00,Monday
31,31214224.971071833
831,31214224.971071833
1043,0.0
2,2, 1, 2, 0,13, 0.00,60.00,Monday
31,31075571.64265664
831,31075571.64265664
1043,0.0
2,2, 1, 2, 0,14, 0.00,60.00,Monday
31,31038109.92187836
831,31038109.92187836
1043,0.0
2,2, 1, 2, 0,15, 0.00,60.00,Monday
31,31019423.017650539
831,31019423.017650539
1043,0.0
2,2, 1, 2, 0,16, 0.00,60.00,Monday
31,30912061.235425265
831,30912061.235425265
1043,0.0
2,2, 1, 2, 0,17, 0.00,60.00,Monday
31,33119439.774880645
831,33119439.774880645
1043,0.0
2,2, 1, 2, 0,18, 0.00,60.00,Monday
31,29261021.770643496
831,29261021.770643489
1043,0.0
2,2, 1, 2, 0,19, 0.00,60.00,Monday
31,27530731.576293284
831,27530731.576293284
1043,0.0
2,2, 1, 2, 0,20, 0.00,60.00,Monday
31,11853154.258345897
831,11853154.258345895
1043,0.0
2,2, 1, 2, 0,21, 0.00,60.00,Monday
31,10637784.395628443
831,10637784.395628443
1043,0.0
2,2, 1, 2, 0,22, 0.00,60.00,Monday
31,10637784.395628443
831,10637784.395628443
1043,0.0
2,2, 1, 2, 0,23, 0.00,60.00,Monday
31,9543951.519120457
831,9543951.519120455
1043,0.0
2,2, 1, 2, 0,24, 0.00,60.00,Monday
31,7197449.08321209
831,7197449.08321209
1043,0.0
2,3, 1, 3, 0, 1, 0.00,60.00,Tuesday
31,9469604.825749658
831,9469604.825749658
1043,0.0
2,3, 1, 3, 0, 2, 0.00,60.00,Tuesday
31,9469604.825749658
831,9469604.825749658
1043,0.0
2,3, 1, 3, 0, 3, 0.00,60.00,Tuesday
31,9469604.825749658
831,9469604.825749658
1043,0.0
2,3, 1, 3, 0, 4, 0.00,60.00,Tuesday
31,9469604.825749658
831,9469604.825749658
1043,0.0
2,3, 1, 3, 0, 5, 0.00,60.00,Tuesday
31,9469604.825749658
831,9469604.825749658
1043,0.0
2,3, 1, 3, 0, 6, 0.00,60.00,Tuesday
31,9469604.825749658
831,9469604.825749658
1043,0.0
2,3, 1, 3, 0, 7, 0.00,60.00,Tuesday
31,34451234.02854286
831,34451234.02854287
1043,6975579.810278939
2,3, 1, 3, 0, 8, 0.00,60.00,Tuesday
31,39009280.117211449
831,39009280.117211449
1043,9294201.696920757
2,3, 1, 3, 0, 9, 0.00,60.00,Tuesday
31,37710948.55349336
831,37710948.55349335
1043,0.0
2,3, 1, 3, 0,10, 0.00,60.00,Tuesday
31,33062933.678834499
831,33062933.6788345
1043,0.0
2,3, 1, 3, 0,11, 0.00,60.00,Tuesday
31,31516886.785541886
831,31516886.785541886
1043,0.0
2,3, 1, 3, 0,12, 0.00,60.00,Tuesday
31,30089080.51885198
831,30089080.51885198
1043,0.0
2,3, 1, 3, 0,13, 0.00,60.00,Tuesday
31,28149887.616996297
831,28149887.616996297
1043,0.0
2,3, 1, 3, 0,14, 0.00,60.00,Tuesday
31,30720102.130019096
831,30720102.13001909
1043,0.0
2,3, 1, 3, 0,15, 0.00,60.00,Tuesday
31,30748533.409923275
831,30748533.409923275
1043,0.0
2,3, 1, 3, 0,16, 0.00,60.00,Tuesday
31,30710735.025975907
831,30710735.025975899
1043,0.0
2,3, 1, 3, 0,17, 0.00,60.00,Tuesday
31,32202388.963268337
831,32202388.963268337
1043,0.0
2,3, 1, 3, 0,18, 0.00,60.00,Tuesday
31,24525019.95846757
831,24525019.958467567
1043,0.0
2,3, 1, 3, 0,19, 0.00,60.00,Tuesday
31,20236045.206503098
831,20236045.206503098
1043,0.0
2,3, 1, 3, 0,20, 0.00,60.00,Tuesday
31,11853154.258345897
831,11853154.258345895
1043,0.0
2,3, 1, 3, 0,21, 0.00,60.00,Tuesday
31,10637784.395628443
831,10637784.395628443
1043,0.0
2,3, 1, 3, 0,22, 0.00,60.00,Tuesday
31,10637784.395628443
831,10637784.395628443
1043,0.0
2,3, 1, 3, 0,23, 0.00,60.00,Tuesday
31,9543951.519120457
831,9543951.519120455
1043,0.0
2,3, 1, 3, 0,24, 0.00,60.00,Tuesday
31,7197449.08321209
831,7197449.08321209
1043,0.0
2,4, 1, 4, 0, 1, 0.00,60.00,Wednesday
31,9469604.825749658
831,9469604.825749658
1043,0.0
2,4, 1, 4, 0, 2, 0.00,60.00,Wednesday
31,9469604.825749658
831,9469604.825749658
1043,0.0
2,4, 1, 4, 0, 3, 0.00,60.00,Wednesday
31,9469604.825749658
831,9469604.825749658
1043,0.0
2,4, 1, 4, 0, 4, 0.00,60.00,Wednesday
31,9469604.825749658
831,9469604.825749658
1043,0.0
2,4, 1, 4, 0, 5, 0.00,60.00,Wednesday
31,9469604.825749658
831,9469604.825749658
1043,0.0
2,4, 1, 4, 0, 6, 0.00,60.00,Wednesday
31,9469604.825749658
831,9469604.825749658
1043,0.0
2,4, 1, 4, 0, 7, 0.00,60.00,Wednesday
31,27077261.873678015
831,27077261.87367802
1043,2582667.883175455
2,4, 1, 4, 0, 8, 0.00,60.00,Wednesday
31,29452999.006217906
831,29452999.006217909
1043,0.0
2,4, 1, 4, 0, 9, 0.00,60.00,Wednesday
31,30889589.269737435
831,30889589.269737428
1043,0.0
2,4, 1, 4, 0,10, 0.00,60.00,Wednesday
31,30098142.817438414
831,30098142.817438406
1043,0.0
2,4, 1, 4, 0,11, 0.00,60.00,Wednesday
31,30205610.405836379
831,30205610.405836379
1043,0.0
2,4, 1, 4, 0,12, 0.00,60.00,Wednesday
31,31139728.866401625
831,31139728.866401625
1043,0.0
2,4, 1, 4, 0,13, 0.00,60.00,Wednesday
31,29401264.19409134
831,29401264.19409134
1043,0.0
2,4, 1, 4, 0,14, 0.00,60.00,Wednesday
31,32775905.065950756
831,32775905.065950749
1043,0.0
2,4, 1, 4, 0,15, 0.00,60.00,Wednesday
31,33483668.65014132
831,33483668.65014132
1043,0.0
2,4, 1, 4, 0,16, 0.00,60.00,Wednesday
31,33429948.936824707
831,33429948.9368247
1043,0.0
2,4, 1, 4, 0,17, 0.00,60.00,Wednesday
31,34165042.34369208
831,34165042.34369207
1043,0.0
2,4, 1, 4, 0,18, 0.00,60.00,Wednesday
31,24187111.624390417
831,24187111.624390417
1043,0.0
2,4, 1, 4, 0,19, 0.00,60.00,Wednesday
31,18275901.094355618
831,18275901.094355618
1043,0.0
2,4, 1, 4, 0,20, 0.00,60.00,Wednesday
31,10953154.258345897
831,10953154.258345895
1043,0.0
2,4, 1, 4, 0,21, 0.00,60.00,Wednesday
31,9737784.395628443
831,9737784.395628443
1043,0.0
2,4, 1, 4, 0,22, 0.00,60.00,Wednesday
31,9737784.395628443
831,9737784.395628443
1043,0.0
2,4, 1, 4, 0,23, 0.00,60.00,Wednesday
31,8643951.519120457
831,8643951.519120455
1043,0.0
2,4, 1, 4, 0,24, 0.00,60.00,Wednesday
31,7047449.08321209
831,7047449.08321209
1043,0.0
2,5, 1, 5, 0, 1, 0.00,60.00,Thursday
31,9469604.825749658
831,9469604.825749658
1043,0.0
2,5, 1, 5, 0, 2, 0.00,60.00,Thursday
31,9469604.825749658
831,9469604.825749658
1043,0.0
2,5, 1, 5, 0, 3, 0.00,60.00,Thursday
31,9469604.825749658
831,9469604.825749658
1043,0.0
2,5, 1, 5, 0, 4, 0.00,60.00,Thursday
31,9469604.825749658
831,9469604.825749658
1043,0.0
2,5, 1, 5, 0, 5, 0.00,60.00,Thursday
31,8869604.825749658
831,8869604.825749658
1043,0.0
2,5, 1, 5, 0, 6, 0.00,60.00,Thursday
31,8569604.825749658
831,8569604.825749658
1043,0.0
2,5, 1, 5, 0, 7, 0.00,60.00,Thursday
31,22705178.0130371
831,22705178.0130371
1043,0.0
2,5, 1, 5, 0, 8, 0.00,60.00,Thursday
31,24051513.581840379
831,24051513.581840375
1043,0.0
2,5, 1, 5, 0, 9, 0.00,60.00,Thursday
31,30286510.13830401
831,30286510.13830401
1043,0.0
2,5, 1, 5, 0,10, 0.00,60.00,Thursday
31,30092922.015829434
831,30092922.01582943
1043,0.0
2,5, 1, 5, 0,11, 0.00,60.00,Thursday
31,30657199.179957555
831,30657199.179957555
1043,0.0
2,5, 1, 5, 0,12, 0.00,60.00,Thursday
31,31477236.156946109
831,31477236.1569461
1043,0.0
2,5, 1, 5, 0,13, 0.00,60.00,Thursday
31,28734946.33434921
831,28734946.33434921
1043,0.0
2,5, 1, 5, 0,14, 0.00,60.00,Thursday
31,31859413.147381829
831,31859413.14738183
1043,0.0
2,5, 1, 5, 0,15, 0.00,60.00,Thursday
31,32177210.123377198
831,32177210.12337719
1043,0.0
2,5, 1, 5, 0,16, 0.00,60.00,Thursday
31,31996338.195835499
831,31996338.195835495
1043,0.0
2,5, 1, 5, 0,17, 0.00,60.00,Thursday
31,32717783.72608498
831,32717783.726084979
1043,0.0
2,5, 1, 5, 0,18, 0.00,60.00,Thursday
31,24819047.5943749
831,24819047.594374896
1043,0.0
2,5, 1, 5, 0,19, 0.00,60.00,Thursday
31,19727479.200519954
831,19727479.200519954
1043,0.0
2,5, 1, 5, 0,20, 0.00,60.00,Thursday
31,11853154.258345897
831,11853154.258345895
1043,0.0
2,5, 1, 5, 0,21, 0.00,60.00,Thursday
31,10487784.395628443
831,10487784.395628443
1043,0.0
2,5, 1, 5, 0,22, 0.00,60.00,Thursday
31,10637784.395628443
831,10637784.395628443
1043,0.0
2,5, 1, 5, 0,23, 0.00,60.00,Thursday
31,9543951.519120457
831,9543951.519120455
1043,0.0
2,5, 1, 5, 0,24, 0.00,60.00,Thursday
31,7197449.08321209
831,7197449.08321209
1043,0.0
2,6, 1, 6, 0, 1, 0.00,60.00,Friday
31,9469604.825749658
831,9469604.825749658
1043,0.0
2,6, 1, 6, 0, 2, 0.00,60.00,Friday
31,9469604.825749658
831,9469604.825749658
1043,0.0
2,6, 1, 6, 0, 3, 0.00,60.00,Friday
31,9469604.825749658
831,9469604.825749658
1043,0.0
2,6, 1, 6, 0, 4, 0.00,60.00,Friday
31,9469604.825749658
831,9469604.825749658
1043,0.0
2,6, 1, 6, 0, 5, 0.00,60.00,Friday
31,9469604.825749658
831,9469604.825749658
1043,0.0
2,6, 1, 6, 0, 6, 0.00,60.00,Friday
31,9469604.825749658
831,9469604.825749658
1043,0.0
2,6, 1, 6, 0, 7, 0.00,60.00,Friday
31,26875447.753799056
831,26875447.75379906
1043,1937836.2961523717
2,6, 1, 6, 0, 8, 0.00,60.00,Friday
31,35745349.61776139
831,35745349.61776138
1043,733098.9865654914
2,6, 1, 6, 0, 9, 0.00,60.00,Friday
31,35315163.34539987
831,35315163.345399867
1043,0.0
2,6, 1, 6, 0,10, 0.00,60.00,Friday
31,33014594.213995685
831,33014594.21399568
1043,0.0
2,6, 1, 6, 0,11, 0.00,60.00,Friday
31,31963435.98743305
831,31963435.987433055
1043,0.0
2,6, 1, 6, 0,12, 0.00,60.00,Friday
31,31789455.547577777
831,31789455.547577777
1043,0.0
2,6, 1, 6, 0,13, 0.00,60.00,Friday
31,33228755.666529634
831,33228755.666529634
1043,0.0
2,6, 1, 6, 0,14, 0.00,60.00,Friday
31,31058553.655980573
831,31058553.655980566
1043,0.0
2,6, 1, 6, 0,15, 0.00,60.00,Friday
31,31054421.32842144
831,31054421.32842144
1043,0.0
2,6, 1, 6, 0,16, 0.00,60.00,Friday
31,31517484.942605266
831,31517484.942605266
1043,0.0
2,6, 1, 6, 0,17, 0.00,60.00,Friday
31,33332724.619483256
831,33332724.619483256
1043,0.0
2,6, 1, 6, 0,18, 0.00,60.00,Friday
31,31687309.817306825
831,31687309.81730682
1043,0.0
2,6, 1, 6, 0,19, 0.00,60.00,Friday
31,27648236.874135525
831,27648236.874135525
1043,0.0
2,6, 1, 6, 0,20, 0.00,60.00,Friday
31,11853154.258345897
831,11853154.258345895
1043,0.0
2,6, 1, 6, 0,21, 0.00,60.00,Friday
31,10637784.395628443
831,10637784.395628443
1043,0.0
2,6, 1, 6, 0,22, 0.00,60.00,Friday
31,10637784.395628443
831,10637784.395628443
1043,0.0
2,6, 1, 6, 0,23, 0.00,60.00,Friday
31,9543951.519120457
831,9543951.519120455
1043,0.0
2,6, 1, 6, 0,24, 0.00,60.00,Friday
31,7197449.08321209
831,7197449.08321209
1043,0.0
2,7, 1, 7, 0, 1, 0.00,60.00,Saturday
31,6404338.596677196
831,6404338.596677196
1043,0.0
2,7, 1, 7, 0, 2, 0.00,60.00,Saturday
31,6404338.596677196
831,6404338.596677196
1043,0.0
2,7, 1, 7, 0, 3, 0.00,60.00,Saturday
31,6404338.596677196
831,6404338.596677196
1043,0.0
2,7, 1, 7, 0, 4, 0.00,60.00,Saturday
31,6404338.596677196
831,6404338.596677196
1043,0.0
2,7, 1, 7, 0, 5, 0.00,60.00,Saturday
31,6404338.596677196
831,6404338.596677196
1043,0.0
2,7, 1, 7, 0, 6, 0.00,60.00,Saturday
31,6404338.596677196
831,6404338.596677196
1043,0.0
2,7, 1, 7, 0, 7, 0.00,60.00,Saturday
31,7595938.596677196
831,7595938.596677195
1043,0.0
2,7, 1, 7, 0, 8, 0.00,60.00,Saturday
31,6128818.596677196
831,6128818.596677195
1043,0.0
2,7, 1, 7, 0, 9, 0.00,60.00,Saturday
31,5395258.596677196
831,5395258.596677196
1043,0.0
2,7, 1, 7, 0,10, 0.00,60.00,Saturday
31,5395258.596677196
831,5395258.596677196
1043,0.0
2,7, 1, 7, 0,11, 0.00,60.00,Saturday
31,5395258.596677196
831,5395258.596677196
1043,0.0
2,7, 1, 7, 0,12, 0.00,60.00,Saturday
31,5395258.596677196
831,5395258.596677196
1043,0.0
2,7, 1, 7, 0,13, 0.00,60.00,Saturday
31,5395258.596677196
831,5395258.596677196
1043,0.0
2,7, 1, 7, 0,14, 0.00,60.00,Saturday
31,5395258.596677196
831,5395258.596677196
1043,0.0
2,7, 1, 7, 0,15, 0.00,60.00,Saturday
31,5395258.596677196
831,5395258.596677196
1043,0.0
2,7, 1, 7, 0,16, 0.00,60.00,Saturday
31,5395258.596677196
831,5395258.596677196
1043,0.0
2,7, 1, 7, 0,17, 0.00,60.00,Saturday
31,6128818.596677196
831,6128818.596677196
1043,0.0
2,7, 1, 7, 0,18, 0.00,60.00,Saturday
31,7595938.596677196
831,7595938.596677195
1043,0.0
2,7, 1, 7, 0,19, 0.00,60.00,Saturday
31,7595938.596677196
831,7595938.596677195
1043,0.0
2,7, 1, 7, 0,20, 0.00,60.00,Saturday
31,6794038.596677196
831,6794038.596677196
1043,0.0
2,7, 1, 7, 0,21, 0.00,60.00,Saturday
31,6794038.596677196
831,6794038.596677196
1043,0.0
2,7, 1, 7, 0,22, 0.00,60.00,Saturday
31,6794038.596677196
831,6794038.596677196
1043,0.0
2,7, 1, 7, 0,23, 0.00,60.00,Saturday
31,6794038.596677196
831,6794038.596677196
1043,0.0
2,7, 1, 7, 0,24, 0.00,60.00,Saturday
31,6794038.596677196
831,6794038.596677196
1043,0.0
2,8, 1, 8, 0, 1, 0.00,60.00,Sunday
31,6404338.596677196
831,6404338.596677196
1043,0.0
2,8, 1, 8, 0, 2, 0.00,60.00,Sunday
31,6404338.596677196
831,6404338.596677196
1043,0.0
2,8, 1, 8, 0, 3, 0.00,60.00,Sunday
31,6404338.596677196
831,6404338.596677196
1043,0.0
2,8, 1, 8, 0, 4, 0.00,60.00,Sunday
31,6404338.596677196
831,6404338.596677196
1043,0.0
2,8, 1, 8, 0, 5, 0.00,60.00,Sunday
31,6404338.596677196
831,6404338.596677196
1043,0.0
2,8, 1, 8, 0, 6, 0.00,60.00,Sunday
31,6404338.596677196
831,6404338.596677196
1043,0.0
2,8, 1, 8, 0, 7, 0.00,60.00,Sunday
31,7595938.596677196
831,7595938.596677195
1043,0.0
2,8, 1, 8, 0, 8, 0.00,60.00,Sunday
31,6128818.596677196
831,6128818.596677195
1043,0.0
2,8, 1, 8, 0, 9, 0.00,60.00,Sunday
31,5395258.596677196
831,5395258.596677196
1043,0.0
2,8, 1, 8, 0,10, 0.00,60.00,Sunday
31,5395258.596677196
831,5395258.596677196
1043,0.0
2,8, 1, 8, 0,11, 0.00,60.00,Sunday
31,5395258.596677196
831,5395258.596677196
1043,0.0
2,8, 1, 8, 0,12, 0.00,60.00,Sunday
31,5395258.596677196
831,5395258.596677196
1043,0.0
2,8, 1, 8, 0,13, 0.00,60.00,Sunday
31,5395258.596677196
831,5395258.596677196
1043,0.0
2,8, 1, 8, 0,14, 0.00,60.00,Sunday
31,5395258.596677196
831,5395258.596677196
1043,0.0
2,8, 1, 8, 0,15, 0.00,60.00,Sunday
31,5395258.596677196
831,5395258.596677196
1043,0.0
2,8, 1, 8, 0,16, 0.00,60.00,Sunday
31,5395258.596677196
831,5395258.596677196
1043,0.0
2,8, 1, 8, 0,17, 0.00,60.00,Sunday
31,6128818.596677196
831,6128818.596677196
1043,0.0
2,8, 1, 8, 0,18, 0.00,60.00,Sunday
31,7595938.596677196
831,7595938.596677195
1043,0.0
2,8, 1, 8, 0,19, 0.00,60.00,Sunday
31,7595938.596677196
831,7595938.596677195
1043,0.0
2,8, 1, 8, 0,20, 0.00,60.00,Sunday
31,6794038.596677196
831,6794038.596677196
1043,0.0
2,8, 1, 8, 0,21, 0.00,60.00,Sunday
31,6794038.596677196
831,6794038.596677196
1043,0.0
2,8, 1, 8, 0,22, 0.00,60.00,Sunday
31,6794038.596677196
831,6794038.596677196
1043,0.0
2,8, 1, 8, 0,23, 0.00,60.00,Sunday
31,6794038.596677196
831,6794038.596677196
1043,0.0
2,8, 1, 8, 0,24, 0.00,60.00,Sunday
31,6794038.596677196
831,6794038.596677196
1043,0.0
2,9, 1, 9, 0, 1, 0.00,60.00,Monday
31,9469604.825749658
831,9469604.825749658
1043,0.0
2,9, 1, 9, 0, 2, 0.00,60.00,Monday
31,9469604.825749658
831,9469604.825749658
1043,0.0
2,9, 1, 9, 0, 3, 0.00,60.00,Monday
31,9469604.825749658
831,9469604.825749658
1043,0.0
2,9, 1, 9, 0, 4, 0.00,60.00,Monday
31,9469604.825749658
831,9469604.825749658
1043,0.0
2,9, 1, 9, 0, 5, 0.00,60.00,Monday
31,9469604.825749658
831,9469604.825749658
1043,0.0
2,9, 1, 9, 0, 6, 0.00,60.00,Monday
31,9469604.825749658
831,9469604.825749658
1043,0.0
2,9, 1, 9, 0, 7, 0.00,60.00,Monday
31,40011795.60398714
831,40011795.60398714
1043,28148429.298955546
2,9, 1, 9, 0, 8, 0.00,60.00,Monday
31,42947352.48929802
831,42947352.489298019
1043,27086740.214664729
2,9, 1, 9, 0, 9, 0.00,60.00,Monday
31,43232845.93107789
831,43232845.93107788
1043,326165.6518184192
2,9, 1, 9, 0,10, 0.00,60.00,Monday
31,35776862.47162186
831,35776862.47162185
1043,0.0
2,9, 1, 9, 0,11, 0.00,60.00,Monday
31,33136527.629361005
831,33136527.629361
1043,0.0
2,9, 1, 9, 0,12, 0.00,60.00,Monday
31,31512240.590428048
831,31512240.590428045
1043,0.0
2,9, 1, 9, 0,13, 0.00,60.00,Monday
31,28606280.168980935
831,28606280.168980935
1043,0.0
2,9, 1, 9, 0,14, 0.00,60.00,Monday
31,29699593.92233634
831,29699593.92233634
1043,0.0
2,9, 1, 9, 0,15, 0.00,60.00,Monday
31,30212814.03517743
831,30212814.035177426
1043,0.0
2,9, 1, 9, 0,16, 0.00,60.00,Monday
31,30589171.270860465
831,30589171.27086046
1043,0.0
2,9, 1, 9, 0,17, 0.00,60.00,Monday
31,32958655.80676517
831,32958655.806765167
1043,0.0
2,9, 1, 9, 0,18, 0.00,60.00,Monday
31,29109209.84232317
831,29109209.842323167
1043,0.0
2,9, 1, 9, 0,19, 0.00,60.00,Monday
31,27023201.001502359
831,27023201.001502359
1043,0.0
2,9, 1, 9, 0,20, 0.00,60.00,Monday
31,11853154.258345897
831,11853154.258345895
1043,0.0
2,9, 1, 9, 0,21, 0.00,60.00,Monday
31,10637784.395628443
831,10637784.395628443
1043,0.0
2,9, 1, 9, 0,22, 0.00,60.00,Monday
31,10637784.395628443
831,10637784.395628443
1043,0.0
2,9, 1, 9, 0,23, 0.00,60.00,Monday
31,9543951.519120457
831,9543951.519120455
1043,0.0
2,9, 1, 9, 0,24, 0.00,60.00,Monday
31,7197449.08321209
831,7197449.08321209
1043,0.0
2,10, 1,10, 0, 1, 0.00,60.00,Tuesday
31,9469604.825749658
831,9469604.825749658
1043,0.0
2,10, 1,10, 0, 2, 0.00,60.00,Tuesday
31,9469604.825749658
831,9469604.825749658
1043,0.0
2,10, 1,10, 0, 3, 0.00,60.00,Tuesday
31,9469604.825749658
831,9469604.825749658
1043,0.0
2,10, 1,10, 0, 4, 0.00,60.00,Tuesday
31,9469604.825749658
831,9469604.825749658
1043,0.0
2,10, 1,10, 0, 5, 0.00,60.00,Tuesday
31,9469604.825749658
831,9469604.825749658
1043,0.0
2,10, 1,10, 0, 6, 0.00,60.00,Tuesday
31,9469604.825749658
831,9469604.825749658
1043,0.0
2,10, 1,10, 0, 7, 0.00,60.00,Tuesday
31,34649921.83081675
831,34649921.830816749
1043,10798816.57106879
2,10, 1,10, 0, 8, 0.00,60.00,Tuesday
31,38820700.593845527
831,38820700.593845527
1043,12569305.29034367
2,10, 1,10, 0, 9, 0.00,60.00,Tuesday
31,37936429.15519315
831,37936429.15519315
1043,0.0
2,10, 1,10, 0,10, 0.00,60.00,Tuesday
31,33068432.07092618
831,33068432.070926176
1043,0.0
2,10, 1,10, 0,11, 0.00,60.00,Tuesday
31,31681064.545909149
831,31681064.545909145
1043,0.0
2,10, 1,10, 0,12, 0.00,60.00,Tuesday
31,30825998.318027356
831,30825998.31802735
1043,0.0
2,10, 1,10, 0,13, 0.00,60.00,Tuesday
31,28359567.809020454
831,28359567.809020454
1043,0.0
2,10, 1,10, 0,14, 0.00,60.00,Tuesday
31,31260422.281866988
831,31260422.281866988
1043,0.0
2,10, 1,10, 0,15, 0.00,60.00,Tuesday
31,30980294.451758475
831,30980294.45175847
1043,0.0
2,10, 1,10, 0,16, 0.00,60.00,Tuesday
31,31053818.989043144
831,31053818.98904313
1043,0.0
2,10, 1,10, 0,17, 0.00,60.00,Tuesday
31,32421402.730269564
831,32421402.730269564
1043,0.0
2,10, 1,10, 0,18, 0.00,60.00,Tuesday
31,25775363.75993156
831,25775363.75993156
1043,0.0
2,10, 1,10, 0,19, 0.00,60.00,Tuesday
31,21778281.921911699
831,21778281.921911699
1043,0.0
2,10, 1,10, 0,20, 0.00,60.00,Tuesday
31,11853154.258345897
831,11853154.258345895
1043,0.0
2,10, 1,10, 0,21, 0.00,60.00,Tuesday
31,10637784.395628443
831,10637784.395628443
1043,0.0
2,10, 1,10, 0,22, 0.00,60.00,Tuesday
31,10637784.395628443
831,10637784.395628443
1043,0.0
2,10, 1,10, 0,23, 0.00,60.00,Tuesday
31,9543951.519120457
831,9543951.519120455
1043,0.0
2,10, 1,10, 0,24, 0.00,60.00,Tuesday
31,7197449.08321209
831,7197449.08321209
1043,0.0
2,11, 1,11, 0, 1, 0.00,60.00,Wednesday
31,9469604.825749658
831,9469604.825749658
1043,0.0
2,11, 1,11, 0, 2, 0.00,60.00,Wednesday
31,9469604.825749658
831,9469604.825749658
1043,0.0
2,11, 1,11, 0, 3, 0.00,60.00,Wednesday
31,9469604.825749658
831,9469604.825749658
1043,0.0
2,11, 1,11, 0, 4, 0.00,60.00,Wednesday
31,9469604.825749658
831,9469604.825749658
1043,0.0
2,11, 1,11, 0, 5, 0.00,60.00,Wednesday
31,9469604.825749658
831,9469604.825749658
1043,0.0
2,11, 1,11, 0, 6, 0.00,60.00,Wednesday
31,9469604.825749658
831,9469604.825749658
1043,0.0
2,11, 1,11, 0, 7, 0.00,60.00,Wednesday
31,28958653.762692393
831,28958653.762692393
1043,3123707.9021825625
2,11, 1,11, 0, 8, 0.00,60.00,Wednesday
31,33454248.354158384
831,33454248.35415838
1043,0.0
2,11, 1,11, 0, 9, 0.00,60.00,Wednesday
31,33033138.515936559
831,33033138.51593655
1043,0.0
2,11, 1,11, 0,10, 0.00,60.00,Wednesday
31,30560687.047301916
831,30560687.047301916
1043,0.0
2,11, 1,11, 0,11, 0.00,60.00,Wednesday
31,30322328.50250431
831,30322328.50250431
1043,0.0
2,11, 1,11, 0,12, 0.00,60.00,Wednesday
31,31121698.9241973
831,31121698.924197295
1043,0.0
2,11, 1,11, 0,13, 0.00,60.00,Wednesday
31,29125886.560593524
831,29125886.560593528
1043,0.0
2,11, 1,11, 0,14, 0.00,60.00,Wednesday
31,31964918.66639459
831,31964918.66639459
1043,0.0
2,11, 1,11, 0,15, 0.00,60.00,Wednesday
31,32680449.806620066
831,32680449.806620066
1043,0.0
2,11, 1,11, 0,16, 0.00,60.00,Wednesday
31,32985904.28907583
831,32985904.28907583
1043,0.0
2,11, 1,11, 0,17, 0.00,60.00,Wednesday
31,33716498.804724078
831,33716498.80472408
1043,0.0
2,11, 1,11, 0,18, 0.00,60.00,Wednesday
31,24176435.085824249
831,24176435.085824245
1043,0.0
2,11, 1,11, 0,19, 0.00,60.00,Wednesday
31,18443229.678566249
831,18443229.678566245
1043,0.0
2,11, 1,11, 0,20, 0.00,60.00,Wednesday
31,11403154.258345897
831,11403154.258345895
1043,0.0
2,11, 1,11, 0,21, 0.00,60.00,Wednesday
31,10637784.395628443
831,10637784.395628443
1043,0.0
2,11, 1,11, 0,22, 0.00,60.00,Wednesday
31,10637784.395628443
831,10637784.395628443
1043,0.0
2,11, 1,11, 0,23, 0.00,60.00,Wednesday
31,9543951.519120457
831,9543951.519120455
1043,0.0
2,11, 1,11, 0,24, 0.00,60.00,Wednesday
31,7197449.08321209
831,7197449.08321209
1043,0.0
2,12, 1,12, 0, 1, 0.00,60.00,Thursday
31,9469604.825749658
831,9469604.825749658
1043,0.0
2,12, 1,12, 0, 2, 0.00,60.00,Thursday
31,9469604.825749658
831,9469604.825749658
1043,0.0
2,12, 1,12, 0, 3, 0.00,60.00,Thursday
31,9469604.825749658
831,9469604.825749658
1043,0.0
2,12, 1,12, 0, 4, 0.00,60.00,Thursday
31,9469604.825749658
831,9469604.825749658
1043,0.0
2,12, 1,12, 0, 5, 0.00,60.00,Thursday
31,9469604.825749658
831,9469604.825749658
1043,0.0