Program Version,EnergyPlus, Version 8.6.0-198c6a3cff, YMD=2019.03.03 17:35
1,5,Environment Title[],Latitude[deg],Longitude[deg],Time Zone[],Elevation[m]
2,6,Day of Simulation[],Month[],Day of Month[],DST Indicator[1=yes 0=no],Hour[],StartMinute[],EndMinute[],DayType
3,3,Cumulative Day of Simulation[],Month[],Day of Month[],DST Indicator[1=yes 0=no],DayType  ! When Daily Report Variables Requested
4,2,Cumulative Days of Simulation[],Month[]  ! When Monthly Report Variables Requested
5,1,Cumulative Days of Simulation[] ! When Run Period Report Variables Requested
525,1,CORE_ZN,Zone Predicted Sensible Load to Setpoint Heat Transfer Rate [W] !Hourly
526,1,CORE_ZN,Zone Predicted Sensible Load to Heating Setpoint Heat Transfer Rate [W] !Hourly
527,1,CORE_ZN,Zone Predicted Sensible Load to Cooling Setpoint Heat Transfer Rate [W] !Hourly
562,1,PERIMETER_ZN_1,Zone Predicted Sensible Load to Setpoint Heat Transfer Rate [W] !Hourly
563,1,PERIMETER_ZN_1,Zone Predicted Sensible Load to Heating Setpoint Heat Transfer Rate [W] !Hourly
564,1,PERIMETER_ZN_1,Zone Predicted Sensible Load to Cooling Setpoint Heat Transfer Rate [W] !Hourly
599,1,PERIMETER_ZN_2,Zone Predicted Sensible Load to Setpoint Heat Transfer Rate [W] !Hourly
600,1,PERIMETER_ZN_2,Zone Predicted Sensible Load to Heating Setpoint Heat Transfer Rate [W] !Hourly
601,1,PERIMETER_ZN_2,Zone Predicted Sensible Load to Cooling Setpoint Heat Transfer Rate [W] !Hourly
636,1,PERIMETER_ZN_3,Zone Predicted Sensible Load to Setpoint Heat Transfer Rate [W] !Hourly
637,1,PERIMETER_ZN_3,Zone Predicted Sensible Load to Heating Setpoint Heat Transfer Rate [W] !Hourly
638,1,PERIMETER_ZN_3,Zone Predicted Sensible Load to Cooling Setpoint Heat Transfer Rate [W] !Hourly
673,1,PERIMETER_ZN_4,Zone Predicted Sensible Load to Setpoint Heat Transfer Rate [W] !Hourly
674,1,PERIMETER_ZN_4,Zone Predicted Sensible Load to Heating Setpoint Heat Transfer Rate [W] !Hourly
675,1,PERIMETER_ZN_4,Zone Predicted Sensible Load to Cooling Setpoint Heat Transfer Rate [W] !Hourly
710,1,ATTIC,Zone Predicted Sensible Load to Setpoint Heat Transfer Rate [W] !Hourly
711,1,ATTIC,Zone Predicted Sensible Load to Heating Setpoint Heat Transfer Rate [W] !Hourly
712,1,ATTIC,Zone Predicted Sensible Load to Cooling Setpoint Heat Transfer Rate [W] !Hourly
End of Data Dictionary
1,DENVER-AURORA-BUCKLEY.AFB_CO_USA ANN HTG 99.6% CONDNS DB,  40.13,-105.24,  -7.00,1689.00
2,1,12,21, 0, 1, 0.00,60.00,WinterDesignDay
525,1609.4895323832989
526,1569.0188030594866
527,43394.831164634554
562,4475.25161440207
563,4475.25161440207
564,38559.29980230249
599,2550.0581069349478
600,2550.0581069349478
601,23001.082830221098
636,4340.346001046722
637,4340.346001046722
638,38422.12954920927
673,2551.424259935949
674,2551.424259935949
675,23002.317707798025
710,0.0
711,0.0
712,0.0
2,1,12,21, 0, 2, 0.00,60.00,WinterDesignDay
525,2118.4805790717282
526,2100.8775418348737
527,42369.54382650872
562,5269.593249098828
563,5269.593249098828
564,37967.95139489838
599,3204.24490535742
600,3204.24490535742
601,22839.792615803988
636,5116.686910564596
637,5116.686910564596
638,37806.81847354297
673,3205.22991505496
674,3205.22991505496
675,22840.83489694678
710,0.0
711,0.0
712,0.0
2,1,12,21, 0, 3, 0.00,60.00,WinterDesignDay
525,1529.2662040134344
526,1493.867255210074
527,39417.29414607402
562,4124.286071919004
563,4124.286071919004
564,34925.56376244531
599,2521.3841443698816
600,2521.3841443698816
601,21029.72772583315
636,4023.5808416033865
637,4023.5808416033865
638,34872.42085195671
673,2523.726161098922
674,2523.726161098922
675,21032.101192724116
710,0.0
711,0.0
712,0.0
2,1,12,21, 0, 4, 0.00,60.00,WinterDesignDay
525,2130.0122009774536
526,2112.2933481573614
527,42404.15653678403
562,5323.715545169729
563,5323.715545169729
564,38058.434961600775
599,3239.7217181782416
600,3239.7217181782416
601,22898.936807618404
636,5168.93118689391
637,5168.93118689391
638,37892.57078079043
673,3240.7038931782367
674,3240.7038931782367
675,22899.952075820056
710,0.0
711,0.0
712,0.0
2,1,12,21, 0, 5, 0.00,60.00,WinterDesignDay
525,1530.8600106388822
526,1495.4799721485604
527,39435.27029972811
562,4144.353431055838
563,4144.353431055838
564,34960.41937289015
599,2534.704583463568
600,2534.704583463568
601,21052.722339684653
636,4042.854140940641
637,4042.854140940641
638,34904.81854938418
673,2537.0748481316127
674,2537.0748481316127
675,21055.11519663352
710,0.0
711,0.0
712,0.0
2,1,12,21, 0, 6, 0.00,60.00,WinterDesignDay
525,2127.1175833787634
526,2109.4739360857616
527,42411.2721031951
562,5334.786856924306
563,5334.786856924306
564,38075.90169388777
599,3247.055350704582
600,3247.055350704582
601,22910.57047420745
636,5179.815817467264
637,5179.815817467264
638,37909.69519400382
673,3248.039735482748
674,3248.039735482748
675,22911.585223930335
710,0.0
711,0.0
712,0.0
2,1,12,21, 0, 7, 0.00,60.00,WinterDesignDay
525,1527.5101137783338
526,1492.3359801822232
527,39443.17103007294
562,4149.805611607062
563,4149.805611607062
564,34968.76043994574
599,2538.3099986917155
600,2538.3099986917155
601,21058.28958680722
636,4048.232197351524
637,4048.232197351524
638,34913.019390958165
673,2540.6893366608706
674,2540.6893366608706
675,21060.690503477603
710,0.0
711,0.0
712,0.0
2,1,12,21, 0, 8, 0.00,60.00,WinterDesignDay
525,2137.295433066528
526,2119.4629984100943
527,42420.5487922256
562,4925.391949401946
563,4925.391949401946
564,37567.24466984276
599,2978.078266096116
600,2978.078266096116
601,22580.804292053435
636,4770.0364902328865
637,4770.0364902328865
638,37398.45282672515
673,2978.791877270039
674,2978.791877270039
675,22581.547145095898
710,0.0
711,0.0
712,0.0
2,1,12,21, 0, 9, 0.00,60.00,WinterDesignDay
525,1548.9418105053549
526,1513.0196933879186
527,39447.19665324103
562,3767.6263678790965
563,3767.6263678790965
564,34432.54503272032
599,2288.4817014576824
600,2288.4817014576824
601,20716.56236908812
636,3666.2799977224076
637,3666.2799977224076
638,34372.933378573034
673,2290.253147588403
674,2290.253147588403
675,20718.34981609961
710,0.0
711,0.0
712,0.0
2,1,12,21, 0,10, 0.00,60.00,WinterDesignDay
525,2165.746573514923
526,2147.497424632727
527,42438.92427411739
562,4914.880578924803
563,4914.880578924803
564,37548.71492889553
599,2970.021339883098
600,2970.021339883098
601,22566.902866993874
636,4758.391284822391
637,4758.391284822391
638,37378.418061490076
673,2970.7583484148468
674,2970.7583484148468
675,22567.664005658935
710,0.0
711,0.0
712,0.0
2,1,12,21, 0,11, 0.00,60.00,WinterDesignDay
525,1558.7405961653433
526,1522.1164219795676
527,39440.96494589746
562,3763.5952085861336
563,3763.5952085861336
564,34425.492983941695
599,2285.3046016103544
600,2285.3046016103544
601,20711.15766302891
636,3661.746203352142
637,3661.746203352142
638,34365.255948487385
673,2287.0616845929367
674,2287.0616845929367
675,20712.927961736346
710,0.0
711,0.0
712,0.0
2,1,12,21, 0,12, 0.00,60.00,WinterDesignDay
525,2186.343252079348
526,2167.7607545072947
527,42453.26860426242
562,4913.0063562299765
563,4913.0063562299765
564,37545.726618885725
599,2968.3947462418605
600,2968.3947462418605
601,22564.333983143657
636,4756.06225263235
637,4756.06225263235
638,37374.74348262103
673,2969.1271878741936
674,2969.1271878741936
675,22565.088936582095
710,0.0
711,0.0
712,0.0
2,1,12,21, 0,13, 0.00,60.00,WinterDesignDay
525,1582.5275792913715
526,1544.9412791777843
527,39442.93156038177
562,3762.8763168621754
563,3762.8763168621754
564,34424.37149906994
599,2284.5981357662336
600,2284.5981357662336
601,20710.0752719965
636,3660.743451977956
637,3660.743451977956
638,34363.717443151836
673,2286.351225251176
674,2286.351225251176
675,20711.84082358899
710,0.0
711,0.0
712,0.0
2,1,12,21, 0,14, 0.00,60.00,WinterDesignDay
525,2208.652318991192
526,2189.737526068336
527,42469.89893194273
562,4912.577380558319
563,4912.577380558319
564,37545.09855355785
599,2967.885254723473
600,2967.885254723473
601,22563.57698168347
636,4755.3513141879785
637,4755.3513141879785
638,37373.6813787792
673,2968.615546181305
674,2968.615546181305
675,22564.329008890247
710,0.0
711,0.0
712,0.0
2,1,12,21, 0,15, 0.00,60.00,WinterDesignDay
525,1571.6610581564303
526,1534.0891936658015
527,39434.456016326876
562,3762.670869257117
563,3762.670869257117
564,34424.11589253122
599,2284.309954045029
600,2284.309954045029
601,20709.682543178707
636,3660.3411081567424
637,3660.3411081567424
638,34363.16145435774
673,2286.0610315752215
674,2286.0610315752215
675,20711.445697221334
710,0.0
711,0.0
712,0.0
2,1,12,21, 0,16, 0.00,60.00,WinterDesignDay
525,2189.6197018908406
526,2171.0212756137075
527,42459.29183634525
562,4912.293836167933
563,4912.293836167933
564,37544.7020952077
599,2967.5597324432215
600,2967.5597324432215
601,22563.106646652082
636,4754.868176931853
637,4754.868176931853
638,37372.977141372576
673,2968.288560973458
674,2968.288560973458
675,22563.856692282687
710,0.0
711,0.0
712,0.0
2,1,12,21, 0,17, 0.00,60.00,WinterDesignDay
525,1580.6246847250288
526,1543.172003958108
527,39446.55237740615
562,3762.4479212309543
563,3762.4479212309543
564,34423.83060986409
599,2284.075639699931
600,2284.075639699931
601,20709.369402024084
636,3659.9782245423357
637,3659.9782245423357
638,34362.66814055489
673,2285.8252084310357
674,2285.8252084310357
675,20711.13078346029
710,0.0
711,0.0
712,0.0
2,1,12,21, 0,18, 0.00,60.00,WinterDesignDay
525,2183.7794675608916
526,2165.324242029485
527,42457.4559742516
562,4912.0779621344545
563,4912.0779621344545
564,37544.39585760868
599,2967.3199911535353
600,2967.3199911535353
601,22562.759419075053
636,4754.505449393763
637,4754.505449393763
638,37372.44489961216
673,2968.0477531335487
674,2968.0477531335487
675,22563.508021367434
710,0.0
711,0.0
712,0.0
2,1,12,21, 0,19, 0.00,60.00,WinterDesignDay
525,1565.6070669472647
526,1528.7464078372893
527,39446.12604714673
562,4105.1038080574235
563,4105.1038080574235
564,34863.72019442313
599,2509.0335428478015
600,2509.0335428478015
601,20993.50751652585
636,4002.2763477793583
637,4002.2763477793583
638,34804.49343704322
673,2511.092748021924
674,2511.092748021924
675,20995.57656787642
710,0.0
711,0.0
712,0.0
2,1,12,21, 0,20, 0.00,60.00,WinterDesignDay
525,2170.263338101756
526,2152.046300667685
527,42452.26382062153
562,5332.133855705943
563,5332.133855705943
564,38070.72401316012
599,3243.7167135429204
600,3243.7167135429204
601,22904.756853614363
636,5175.35845208869
637,5175.35845208869
638,37902.05349548622
673,3244.685633415536
674,3244.685633415536
675,22905.7491621668
710,0.0
711,0.0
712,0.0
2,1,12,21, 0,21, 0.00,60.00,WinterDesignDay
525,1561.524922334844
526,1525.0358388593768
527,39456.44687097921
562,4150.117585980602
563,4150.117585980602
564,34968.342273563554
599,2537.5806889816718
600,2537.5806889816718
601,21056.668887066127
636,4047.4748532545727
637,4047.4748532545727
638,34911.26798273626
673,2539.9506080938486
674,2539.9506080938486
675,21059.056907077134
710,0.0
711,0.0
712,0.0
2,1,12,21, 0,22, 0.00,60.00,WinterDesignDay
525,2161.838694458915
526,2143.7658303709836
527,42450.62079011596
562,5341.0663552600445
563,5341.0663552600445
564,38085.05567976391
599,3250.229197953135
600,3250.229197953135
601,22915.233683174873
636,5184.893788367401
637,5184.893788367401
638,37917.227214047314
673,3251.2086562119425
674,3251.2086562119425
675,22916.239675009983
710,0.0
711,0.0
712,0.0
2,1,12,21, 0,23, 0.00,60.00,WinterDesignDay
525,1546.220981652158
526,1510.2929284877773
527,39456.86400620972
562,4154.151156298426
563,4154.151156298426
564,34974.7188031279
599,2540.541641727496
600,2540.541641727496
601,21061.375207993286
636,4051.8164006608945
637,4051.8164006608945
638,34918.04781274657
673,2542.9225495442624
674,2542.9225495442624
675,21063.775705283155
710,0.0
711,0.0
712,0.0
2,1,12,21, 0,24, 0.00,60.00,WinterDesignDay
525,2145.925709261592
526,2128.0832818208582
527,42440.29641008537
562,5344.103710971718
563,5344.103710971718
564,38089.62151487567
599,3252.436893100516
600,3252.436893100516
601,22918.584617116663
636,5188.205784812721
637,5188.205784812721
638,37922.253282310885
673,3253.4200024122833
674,3253.4200024122833
675,22919.59515294652
710,0.0
711,0.0
712,0.0
1,DENVER-AURORA-BUCKLEY.AFB_CO_USA ANN CLG .4% CONDNS DB=>MWB,  40.13,-105.24,  -7.00,1689.00
2,1, 7,21, 0, 1, 0.00,60.00,SummerDesignDay
525,-3637.183996915181
526,-39471.98397318487
527,-3637.183996915181
562,-2662.657982635423
563,-30401.51315596299
564,-2662.657982635423
599,-1557.59443887552
600,-18222.987082379546
601,-1552.3619908319533
636,-2697.6925630216288
637,-30405.14999712847
638,-2697.6925630216288
673,-1685.5709954822876
674,-18516.839066338714
675,-1678.6770384489257
710,0.0
711,0.0
712,0.0
2,1, 7,21, 0, 2, 0.00,60.00,SummerDesignDay
525,-4182.261630818518
526,-38076.0670095226
527,-4182.261630818518
562,-2855.032267063804
563,-29058.277829867326
564,-2855.032267063804
599,-1724.5120407497905
600,-17464.267904712033
601,-1724.5120407497905
636,-2857.3541785730836
637,-29037.36619068464
638,-2857.3541785730836
673,-1841.0612225378334
674,-17724.44674610377
675,-1841.0612225378334
710,0.0
711,0.0
712,0.0
2,1, 7,21, 0, 3, 0.00,60.00,SummerDesignDay
525,-3457.5658745199266
526,-35503.404204942126
527,-3457.5658745199266
562,-2192.475981177035
563,-26939.034014804358
564,-2192.475981177035
599,-1325.218652698248
600,-16191.158359325085
601,-1325.218652698248
636,-2203.9903337189066
637,-26941.08495166438
638,-2203.9903337189066
673,-1399.4475343526449
674,-16349.208559115037
675,-1399.4475343526449
710,0.0
711,0.0
712,0.0
2,1, 7,21, 0, 4, 0.00,60.00,SummerDesignDay
525,-4132.811530054516
526,-37964.75195020617
527,-4132.811530054516
562,-2696.55357423425
563,-28726.500166204234
564,-2696.55357423425
599,-1624.0186261660294
600,-17251.14856083012
601,-1624.0186261660294
636,-2700.653811186189
637,-28716.28186374248
638,-2700.653811186189
673,-1702.9713950297173
674,-17442.223843706935
675,-1702.9713950297173
710,0.0
711,0.0
712,0.0
2,1, 7,21, 0, 5, 0.00,60.00,SummerDesignDay
525,-3415.3223566823035
526,-35423.235408478264
527,-3415.3223566823035
562,-2082.3529163203198
563,-26709.870094949092
564,-2082.3529163203198
599,-1257.8897788967186
600,-16044.190787813737
601,-1257.8897788967186
636,-2089.847847779565
637,-26714.346981995932
638,-2089.847847779565
673,-1306.0270241626647
674,-16159.519167712098
675,-1306.0270241626647
710,0.0
711,0.0
712,0.0
2,1, 7,21, 0, 6, 0.00,60.00,SummerDesignDay
525,-4531.85834858581
526,-43968.37060842192
527,-4531.85834858581
562,-2956.6948515971685
563,-33175.34526938445
564,-2956.6948515971685
599,-2240.6502219951235
600,-20671.703136099273
601,-2240.6502219951235
636,-3167.6565130783006
637,-33545.15726910155
638,-3167.6565130783006
673,-1833.4963428312383
674,-20027.61381866896
675,-1833.4963428312383
710,0.0
711,0.0
712,0.0
2,1, 7,21, 0, 7, 0.00,60.00,SummerDesignDay
525,-2829.7439606958737
526,-55568.35575704765
527,-2829.7439606958737
562,-1868.530877782936
563,-42215.30942855997
564,-1868.530877782936
599,-1968.3614646509457
600,-27099.54401331783
601,-1968.3614646509457
636,-2025.1501487557969
637,-42662.60175703829
638,-2025.1501487557969
673,-1139.5220147257703
674,-25305.294330786903
675,-1139.5220147257703
710,0.0
711,0.0
712,0.0
2,1, 7,21, 0, 8, 0.00,60.00,SummerDesignDay
525,-2481.88418555625
526,-72038.90623998166
527,-2481.88418555625
562,-1858.1010316982736
563,-55122.9903621726
564,-1858.1010316982736
599,-2446.6384635986083
600,-35821.53717643607
601,-2446.6384635986083
636,-1896.9460607732642
637,-55281.36723149527
638,-1896.9460607732642
673,-1131.5143795478573
674,-32939.94134618837
675,-1131.5143795478573
710,0.0
711,0.0
712,0.0
2,1, 7,21, 0, 9, 0.00,60.00,SummerDesignDay
525,-2521.3617419725265
526,-75914.29826647746
527,-2521.3617419725265
562,-2034.194196262347
563,-58483.67133296903
564,-2034.194196262347
599,-2751.5103506133078
600,-38074.95543541325
601,-2751.5103506133078
636,-2046.240555083884
637,-58534.28959042069
638,-2046.240555083884
673,-1218.3934470609022
674,-34878.95626776931
675,-1218.3934470609022
710,0.0
711,0.0
712,0.0
2,1, 7,21, 0,10, 0.00,60.00,SummerDesignDay
525,-2602.312368900129
526,-68639.88357193141
527,-2602.312368900129
562,-2263.8210808700796
563,-53377.91271132547
564,-2263.8210808700796
599,-2682.4522592822927
600,-34621.130618265706
601,-2682.4522592822927
636,-2255.856827716408
637,-53374.59585340877
638,-2255.856827716408
673,-1343.436411271365
674,-31827.223273614054
675,-1343.436411271365
710,0.0
711,0.0
712,0.0
2,1, 7,21, 0,11, 0.00,60.00,SummerDesignDay
525,-2691.0142388115696
526,-55738.85818626625
527,-2691.0142388115696
562,-2595.118580598326
563,-44176.41285465769
564,-2595.118580598326
599,-2291.4337352296184
600,-28031.825184104124
601,-2291.4337352296184
636,-2441.1621424293603
637,-43850.42018793567
638,-2441.1621424293603
673,-1469.677730775454
674,-26221.035776515153
675,-1469.677730775454
710,0.0
711,0.0
712,0.0
2,1, 7,21, 0,12, 0.00,60.00,SummerDesignDay
525,-2769.7992746554833
526,-42805.12614806965
527,-2769.7992746554833
562,-2934.976535822099
563,-34957.44615948757
564,-2934.976535822099
599,-2018.2076311590529
600,-21553.358372294144
601,-2018.2076311590529
636,-2600.763396541411
637,-34243.06422548737
638,-2600.763396541411
673,-1571.2895363265409
674,-20547.914552515624
675,-1571.2895363265409
710,0.0
711,0.0
712,0.0
2,1, 7,21, 0,13, 0.00,60.00,SummerDesignDay
525,-2835.988013450848
526,-29831.960618326062
527,-2835.988013450848
562,-3163.5483965969347
563,-25470.98599583916
564,-3163.5483965969347
599,-1966.3616424710501
600,-15513.613091664001
601,-1966.3616424710501
636,-2733.7522870184184
637,-24562.736971064925
638,-2733.7522870184184
673,-1655.8714176282228
674,-14819.671569720767
675,-1655.8714176282228
710,0.0
711,0.0
712,0.0
2,1, 7,21, 0,14, 0.00,60.00,SummerDesignDay
525,-2888.031323139003
526,-22453.84713982711
527,-2888.031323139003
562,-3230.333421872702
563,-19923.858132586884
564,-3230.333421872702
599,-1961.1009813356086
600,-12110.418447123286
601,-1961.1009813356086
636,-2836.589116460469
637,-19088.373510202284
638,-2836.589116460469
673,-1877.6223408384242
674,-11855.52089573274
675,-1877.6223408384242
710,0.0
711,0.0
712,0.0
2,1, 7,21, 0,15, 0.00,60.00,SummerDesignDay
525,-2927.823270061537
526,-30081.831812742254
527,-2927.823270061537
562,-3164.255474086733
563,-25506.904250201682
564,-3164.255474086733
599,-1944.4354919534453
600,-15459.178458055598
601,-1944.4354919534453
636,-2892.1491616621643
637,-24925.022409165245
638,-2892.1491616621643
673,-2466.2358140911365
674,-16337.22147662339
675,-2466.2358140911365
710,0.0
711,0.0
712,0.0
2,1, 7,21, 0,16, 0.00,60.00,SummerDesignDay
525,-2943.3305663242213
526,-41413.99232016135
527,-2943.3305663242213
562,-3082.444020844267
563,-33906.857233663344
564,-3082.444020844267
599,-1896.7052646266213
600,-20444.237490862695
601,-1896.7052646266213
636,-2869.067822280489
637,-33453.180238472974
638,-2869.067822280489
673,-3029.9535324301214
674,-22407.721799788615
675,-3029.9535324301214
710,0.0
711,0.0
712,0.0
2,1, 7,21, 0,17, 0.00,60.00,SummerDesignDay
525,-2923.4755817674
526,-54546.30835126101
527,-2923.4755817674
562,-2972.1843988402684
563,-43676.559751238005
564,-2972.1843988402684
599,-1824.0692292724825
600,-26220.10176848463
601,-1824.0692292724825
636,-2800.6714092226225
637,-43305.328504182806
638,-2800.6714092226225
673,-3275.3768736138577
674,-28767.919982731142
675,-3275.3768736138577
710,0.0
711,0.0
712,0.0
2,1, 7,21, 0,18, 0.00,60.00,SummerDesignDay
525,-2890.363051328493
526,-63860.108971432026
527,-2890.363051328493
562,-2833.8333232240598
563,-50521.37177571376
564,-2833.8333232240598
599,-1719.9680087482905
600,-30239.747725191846
601,-1719.9680087482905
636,-2773.1618292894623
637,-50362.380858067154
638,-2773.1618292894623
673,-3172.493916406833
674,-32872.99359977466
675,-3172.493916406833
710,0.0
711,0.0
712,0.0
2,1, 7,21, 0,19, 0.00,60.00,SummerDesignDay
525,-2837.66199018131
526,-67482.80698906452
527,-2837.66199018131
562,-2621.5870240737327
563,-52921.40676410926
564,-2621.5870240737327
599,-1590.6563247292252
600,-31650.199166064656
601,-1590.6563247292252
636,-2699.3654620884668
637,-53099.76039148948
638,-2699.3654620884668
673,-2689.3025864386013
674,-33805.47065722978
675,-2689.3025864386013
710,0.0
711,0.0
712,0.0
2,1, 7,21, 0,20, 0.00,60.00,SummerDesignDay
525,-5155.064488163557
526,-73272.10483486095
527,-5155.064488163557
562,-4138.829398833667
563,-56797.309232079795
564,-4138.829398833667
599,-2442.9575071888926
600,-33909.42800235591
601,-2442.9575071888926
636,-4229.944400588417
637,-56920.529677326536
638,-4229.944400588417
673,-3073.8923574514215
674,-35106.14240616786
675,-3073.8923574514215
710,0.0
711,0.0
712,0.0
2,1, 7,21, 0,21, 0.00,60.00,SummerDesignDay
525,-5373.064079847522
526,-58378.42719749132
527,-5373.064079847522
562,-4251.429076245982
563,-45315.87849890478
564,-4251.429076245982
599,-2543.632772772908
600,-27137.562727374985
601,-2543.632772772908
636,-4267.71463733745
637,-45336.97221151082
638,-4267.71463733745
673,-3089.8818871472226
674,-28057.639305231947
675,-3089.8818871472226
710,0.0
711,0.0
712,0.0
2,1, 7,21, 0,22, 0.00,60.00,SummerDesignDay
525,-4478.87801359512
526,-48005.117986607656
527,-4478.87801359512
562,-3317.450769401575
563,-37004.07900815246
564,-3317.450769401575
599,-1946.5858349375164
600,-22148.389463966538
601,-1946.5858349375164
636,-3345.1512247355968
637,-37031.66102462268
638,-3345.1512247355968
673,-2229.709051730255
674,-22595.89048665841
675,-2229.709051730255
710,0.0
711,0.0
712,0.0
2,1, 7,21, 0,23, 0.00,60.00,SummerDesignDay
525,-4775.6979563069135
526,-44509.75660128231
527,-4775.6979563069135
562,-3516.864528404527
563,-34343.27464443332
564,-3516.864528404527
599,-2104.0753641369406
600,-20607.965331880405
601,-2104.0753641369406
636,-3522.741419615389
637,-34326.667975288314
638,-3522.741419615389
673,-2361.1100206049614
674,-21084.361814325817
675,-2361.1100206049614
710,0.0
711,0.0
712,0.0
2,1, 7,21, 0,24, 0.00,60.00,SummerDesignDay
525,-5296.957044862818
526,-48708.20198436168
527,-5296.957044862818
562,-3324.8370706342434
563,-36852.82842665632
564,-3324.8370706342434
599,-1922.3471159459552
600,-22016.95422816323
601,-1922.3471159459552
636,-3373.934390159216
637,-36886.36248740307
638,-3373.934390159216
673,-2061.1499792179343
674,-22280.356641390477
675,-2061.1499792179343
710,0.0
711,0.0
712,0.0
1,Broomfield Jeffco  Boulder   S CO USA TMY3 WMO#=724699,  40.13,-105.24,  -7.00,1689.00
2,1, 1, 1, 0, 1, 0.00,60.00,Holiday
525,0.0
526,-10979.472481465373
527,28372.544764862458
562,0.0
563,-5039.512482284657
564,26538.08089540704
599,0.0
600,-1724.214590317047
601,17339.89738900204
636,0.0
637,-2195.5494330189376
638,29851.5477403511
673,0.0
674,-1652.0998768069605
675,17389.447517835753
710,0.0
711,0.0
712,0.0
2,1, 1, 1, 0, 2, 0.00,60.00,Holiday
525,0.0
526,-12587.201983629551
527,35851.694375864856
562,0.0
563,-5364.068154593145
564,33705.55446646807
599,0.0
600,-1772.9360351339983
601,21973.152474040195
636,0.0
637,-2216.3437057346287
638,37708.17562219257
673,0.0
674,-1686.2177526912883
675,22053.516275295875
710,0.0
711,0.0
712,0.0
2,1, 1, 1, 0, 3, 0.00,60.00,Holiday
525,0.0
526,-8869.263342177655
527,26654.153820550226
562,0.0
563,-3577.2677517893953
564,25942.640049183847
599,0.0
600,-1134.2500094835702
601,16823.558040770615
636,0.0
637,-1405.1030782497157
638,28719.81662183993
673,0.0
674,-1076.8502219553795
675,16876.48528638898
710,0.0
711,0.0
712,0.0
2,1, 1, 1, 0, 4, 0.00,60.00,Holiday
525,0.0
526,-6972.6395685171165
527,22116.26504113684
562,0.0
563,-2589.095912313335
564,22173.325235496915
599,0.0
600,-776.4652557373447
601,14306.463779735845
636,0.0
637,-944.3832404697345
638,24315.014809333097
673,0.0
674,-731.6759078346755
675,14348.081229635447
710,0.0
711,0.0
712,0.0
2,1, 1, 1, 0, 5, 0.00,60.00,Holiday
525,0.0
526,-6747.567398014163
527,22413.909532221212
562,0.0
563,-2182.98868508682
564,22771.580055339993
599,0.0
600,-582.451465390585
601,14591.340232291215
636,0.0
637,-681.5705023540808
638,24716.224376800576
673,0.0
674,-540.7408874608669
675,14630.986229451917
710,0.0
711,0.0
712,0.0
2,1, 1, 1, 0, 6, 0.00,60.00,Holiday
525,0.0
526,-6546.79103141776
527,22708.558672000563
562,0.0
563,-1801.565307928396
564,23345.563936650968
599,0.0
600,-397.66227245910405
601,14878.56612965941
636,0.0
637,-433.99324466479268
638,25117.173013470947
673,0.0
674,-362.68945135195949
675,14910.752116909714
710,0.0
711,0.0
712,0.0
2,1, 1, 1, 0, 7, 0.00,60.00,Holiday
525,0.0
526,-6372.015451143016
527,23004.358470226118
562,0.0
563,-1477.6505561592046
564,23729.578229267863
599,0.0
600,-247.9342564102632
601,15050.292343042944
636,0.0
637,-238.4168702180917
638,25341.032704123663
673,0.0
674,-223.65156818841329
675,15065.11412181421
710,0.0
711,0.0
712,0.0
2,1, 1, 1, 0, 8, 0.00,60.00,Holiday
525,0.0
526,-6906.192850275875
527,25838.524125217024
562,0.0
563,-1630.7815830902273
564,26159.26870622516
599,0.0
600,-402.597390671642
601,16434.32112825115
636,0.0
637,-112.82618133540625
638,27996.344321412133
673,0.0
674,-128.95105713803455
675,16664.258163034607
710,0.0
711,0.0
712,0.0
2,1, 1, 1, 0, 9, 0.00,60.00,Holiday
525,0.0
526,-15972.450878649288
527,59190.05731712465
562,0.0
563,-7163.063351883978
564,52460.22834637184
599,0.0
600,-3220.0928649610923
601,32187.726875004326
636,0.0
637,-795.3654350873694
638,59505.46702935696
673,0.0
674,-587.0571161581657
675,35298.99340268577
710,0.0
711,0.0
712,0.0
2,1, 1, 1, 0,10, 0.00,60.00,Holiday
525,0.0
526,-23527.163239103178
527,80984.9484023929
562,0.0
563,-18117.92423294132
564,63881.25966743318
599,0.0
600,-7819.677707418227
601,41039.15732993739
636,0.0
637,-2474.7571468886395
638,79667.51483663199
673,0.0
674,-1687.2844935925839
675,47149.75286873965
710,0.0
711,0.0
712,0.0
2,1, 1, 1, 0,11, 0.00,60.00,Holiday
525,0.0
526,-28498.588631989547
527,79665.99291093037
562,0.0
563,-29029.611833939503
564,56505.81188414661
599,0.0
600,-9698.636538083285
601,40137.65426468402
636,0.0
637,-4340.628817821249
638,79283.76269861945
673,0.0
674,-3139.16726947709
675,46690.59698573416
710,0.0
711,0.0
712,0.0
2,1, 1, 1, 0,12, 0.00,60.00,Holiday
525,0.0
526,-24193.646250247624
527,61314.66249671818
562,0.0
563,-29456.094503549743
564,38416.96896250082
599,0.0
600,-7336.091721651359
601,31581.633333607384
636,0.0
637,-4880.852751980487
638,60774.084300611285
673,0.0
674,-3706.599507181549
675,36089.017046064815
710,0.0
711,0.0
712,0.0
2,1, 1, 1, 0,13, 0.00,60.00,Holiday
525,0.0
526,-18119.711270742613
527,41877.960440936804
562,0.0
563,-24182.4688458267
564,23318.498724839985
599,0.0
600,-5292.501070086389
601,21888.033056346903
636,0.0
637,-4381.656133473632
638,41625.35206879477
673,0.0
674,-3420.3878929742955
675,24633.053411683086
710,0.0
711,0.0
712,0.0
2,1, 1, 1, 0,14, 0.00,60.00,Holiday
525,0.0
526,-12063.097923431013
527,25512.293320190325
562,0.0
563,-15030.73239001843
564,13824.522202852342
599,0.0
600,-3574.974978896246
601,13484.009174163924
636,0.0
637,-3354.078239452389
638,25250.425865702044
673,0.0
674,-3032.9750141763125
675,14765.360217650375
710,0.0
711,0.0
712,0.0
2,1, 1, 1, 0,15, 0.00,60.00,Holiday
525,0.0
526,-18927.062645805763
527,37968.02977890065
562,0.0
563,-19872.035989458203
564,21321.037030155105
599,0.0
600,-5390.485611738691
601,20167.61089349443
636,0.0
637,-5602.736625139501
638,37746.32330584876
673,0.0
674,-5352.034382577437
675,20948.285435375663
710,0.0
711,0.0
712,0.0
2,1, 1, 1, 0,16, 0.00,60.00,Holiday
525,0.0
526,-26826.8018963775
527,52414.11669443216
562,0.0
563,-24580.53904530681
564,32394.711413041616
599,0.0
600,-7072.230830254539
601,28033.68515275362
636,0.0
637,-7919.78393101145
638,52345.13117521858
673,0.0
674,-7624.76122243008
675,28362.86612131582
710,0.0
711,0.0
712,0.0
2,1, 1, 1, 0,17, 0.00,60.00,Holiday
525,0.0
526,-27891.850679072726
527,54241.669249865896
562,0.0
563,-22451.569140344203
564,36596.22949274474
599,0.0
600,-7013.8913322067865
601,29756.396767443595
636,0.0
637,-8128.51073750384
638,54576.629309217045
673,0.0
674,-7727.822043342402
675,29445.09092548485
710,0.0
711,0.0
712,0.0
2,1, 1, 1, 0,18, 0.00,60.00,Holiday
525,0.0
526,-25430.468222435597
527,50329.96787147984
562,0.0
563,-18152.342733203186
564,38237.42558321735
599,0.0
600,-5835.586624802527
601,27892.354411708697
636,0.0
637,-6878.3937193626325
638,50354.82516957334
673,0.0
674,-6070.048254000099
675,27656.43180588537
710,0.0
711,0.0
712,0.0
2,1, 1, 1, 0,19, 0.00,60.00,Holiday
525,0.0
526,-17526.768837692867
527,35830.47725975315
562,0.0
563,-11272.628659904449
564,28050.224523181805
599,0.0
600,-3813.19698869855
601,20174.55511757106
636,0.0
637,-4465.637855107429
638,35314.84050857114
673,0.0
674,-3839.483556256267
675,19789.472208673298
710,0.0
711,0.0
712,0.0
2,1, 1, 1, 0,20, 0.00,60.00,Holiday
525,0.0
526,-13017.07687789437
527,27450.35805076124
562,0.0
563,-7846.719149738962
564,22313.722530087227
599,0.0
600,-2691.127726032318
601,15684.899288070199
636,0.0
637,-3198.7934247143717
638,27326.171552714717
673,0.0
674,-2663.9563227027643
675,15400.534814755389
710,0.0
711,0.0
712,0.0
2,1, 1, 1, 0,21, 0.00,60.00,Holiday
525,0.0
526,-9696.39784835565
527,21084.03650164079
562,0.0
563,-5464.055690394997
564,17982.492090273077
599,0.0
600,-1888.4873147448686
601,12387.735668219553
636,0.0
637,-2266.3502743295517
638,21489.903169167246
673,0.0
674,-1841.595101367061
675,12190.518266269612
710,0.0
711,0.0
712,0.0
2,1, 1, 1, 0,22, 0.00,60.00,Holiday
525,0.0
526,-9514.033111831015
527,21200.554672286507
562,0.0
563,-5121.236325481222
564,18679.588402030684
599,0.0
600,-1775.1101863493352
601,12520.022587318375
636,0.0
637,-2155.625542381969
638,21518.159569982803
673,0.0
674,-1715.0183369817914
675,12382.397039461226
710,0.0
711,0.0
712,0.0
2,1, 1, 1, 0,23, 0.00,60.00,Holiday
525,0.0
526,-9366.478711595646
527,21303.776352767072
562,0.0
563,-4671.014812131833
564,19337.14350458925
599,0.0
600,-1613.7680282964063
601,12849.25632475602
636,0.0
637,-2003.1336629182576
638,22129.487888779782
673,0.0
674,-1565.4883546093777
675,12797.31477899505
710,0.0
711,0.0
712,0.0
2,1, 1, 1, 0,24, 0.00,60.00,Holiday
525,0.0