Program Version,EnergyPlus, Version 8.6.0-198c6a3cff, YMD=2019.03.03 19:12
1,5,Environment Title[],Latitude[deg],Longitude[deg],Time Zone[],Elevation[m]
2,6,Day of Simulation[],Month[],Day of Month[],DST Indicator[1=yes 0=no],Hour[],StartMinute[],EndMinute[],DayType
3,3,Cumulative Day of Simulation[],Month[],Day of Month[],DST Indicator[1=yes 0=no],DayType  ! When Daily Meters Requested
4,2,Cumulative Days of Simulation[],Month[]  ! When Monthly Meters Requested
5,1,Cumulative Days of Simulation[] ! When Run Period Meters Requested
31,1,Electricity:Facility [J] !Hourly
831,1,ElectricityNet:Facility [J] !Hourly
1043,1,Gas:Facility [J] !Hourly
End of Data Dictionary
1,TUCSON-DAVIS-MONTHAN.AFB_AZ_USA ANN HTG 99.6% CONDNS DB,  33.45,-111.98,  -7.00, 337.00
2,1,12,21, 0, 1, 0.00,60.00,WinterDesignDay
31,16121306.334168133
831,16121306.334168133
1043,1786039.6330921525
2,1,12,21, 0, 2, 0.00,60.00,WinterDesignDay
31,15950274.203477808
831,15950274.203477808
1043,1483877.1871086604
2,1,12,21, 0, 3, 0.00,60.00,WinterDesignDay
31,15911528.427053554
831,15911528.427053556
1043,2688144.0988248756
2,1,12,21, 0, 4, 0.00,60.00,WinterDesignDay
31,15673467.126104698
831,15673467.126104696
1043,1491563.6443175723
2,1,12,21, 0, 5, 0.00,60.00,WinterDesignDay
31,16229152.113805863
831,16229152.113805863
1043,2942593.7141242946
2,1,12,21, 0, 6, 0.00,60.00,WinterDesignDay
31,15414916.602317879
831,15414916.602317879
1043,1459631.5204620194
2,1,12,21, 0, 7, 0.00,60.00,WinterDesignDay
31,17384538.576027015
831,17384538.576027015
1043,2904133.22867937
2,1,12,21, 0, 8, 0.00,60.00,WinterDesignDay
31,15579655.194770875
831,15579655.194770873
1043,511570.9464815001
2,1,12,21, 0, 9, 0.00,60.00,WinterDesignDay
31,15661889.77897064
831,15661889.77897064
1043,991778.5820591962
2,1,12,21, 0,10, 0.00,60.00,WinterDesignDay
31,14796226.961776993
831,14796226.961776993
1043,490002.05278268686
2,1,12,21, 0,11, 0.00,60.00,WinterDesignDay
31,15645667.103555384
831,15645667.103555384
1043,976590.7663385484
2,1,12,21, 0,12, 0.00,60.00,WinterDesignDay
31,14786032.976780273
831,14786032.976780272
1043,489841.5271150627
2,1,12,21, 0,13, 0.00,60.00,WinterDesignDay
31,15643370.079896467
831,15643370.079896467
1043,986490.4819866351
2,1,12,21, 0,14, 0.00,60.00,WinterDesignDay
31,14788104.229379546
831,14788104.229379544
1043,495713.8132818853
2,1,12,21, 0,15, 0.00,60.00,WinterDesignDay
31,15638796.488879797
831,15638796.488879797
1043,989486.6610521677
2,1,12,21, 0,16, 0.00,60.00,WinterDesignDay
31,14781553.362541672
831,14781553.362541674
1043,493792.6377613876
2,1,12,21, 0,17, 0.00,60.00,WinterDesignDay
31,15637482.064954637
831,15637482.064954635
1043,990099.1199464894
2,1,12,21, 0,18, 0.00,60.00,WinterDesignDay
31,16611137.089221107
831,16611137.089221107
1043,492592.4536485171
2,1,12,21, 0,19, 0.00,60.00,WinterDesignDay
31,16637701.846782074
831,16637701.846782072
1043,2521897.7872518685
2,1,12,21, 0,20, 0.00,60.00,WinterDesignDay
31,15530526.753289368
831,15530526.753289367
1043,1474955.4494691962
2,1,12,21, 0,21, 0.00,60.00,WinterDesignDay
31,16608418.806707278
831,16608418.806707278
1043,2959851.5556638578
2,1,12,21, 0,22, 0.00,60.00,WinterDesignDay
31,15788916.339436107
831,15788916.339436107
1043,1462996.9076535626
2,1,12,21, 0,23, 0.00,60.00,WinterDesignDay
31,16567681.670752613
831,16567681.670752613
1043,2908199.45170519
2,1,12,21, 0,24, 0.00,60.00,WinterDesignDay
31,15764956.77821967
831,15764956.77821967
1043,1447202.164913672
1,TUCSON-DAVIS-MONTHAN.AFB_AZ_USA ANN CLG .4% CONDNS DB=>MWB,  33.45,-111.98,  -7.00, 337.00
2,1, 7,21, 0, 1, 0.00,60.00,SummerDesignDay
31,42410997.34776958
831,42410997.34776959
1043,0.0
2,1, 7,21, 0, 2, 0.00,60.00,SummerDesignDay
31,40491544.53999191
831,40491544.53999191
1043,0.0
2,1, 7,21, 0, 3, 0.00,60.00,SummerDesignDay
31,42084401.10718113
831,42084401.10718113
1043,0.0
2,1, 7,21, 0, 4, 0.00,60.00,SummerDesignDay
31,40112578.596660587
831,40112578.596660587
1043,0.0
2,1, 7,21, 0, 5, 0.00,60.00,SummerDesignDay
31,43560093.98987999
831,43560093.98987998
1043,0.0
2,1, 7,21, 0, 6, 0.00,60.00,SummerDesignDay
31,40026516.82148444
831,40026516.82148443
1043,0.0
2,1, 7,21, 0, 7, 0.00,60.00,SummerDesignDay
31,46929279.62867355
831,46929279.62867355
1043,0.0
2,1, 7,21, 0, 8, 0.00,60.00,SummerDesignDay
31,46489838.419271398
831,46489838.419271398
1043,0.0
2,1, 7,21, 0, 9, 0.00,60.00,SummerDesignDay
31,47970791.168320309
831,47970791.1683203
1043,0.0
2,1, 7,21, 0,10, 0.00,60.00,SummerDesignDay
31,49816250.60419614
831,49816250.604196149
1043,0.0
2,1, 7,21, 0,11, 0.00,60.00,SummerDesignDay
31,51463026.27373932
831,51463026.27373933
1043,0.0
2,1, 7,21, 0,12, 0.00,60.00,SummerDesignDay
31,52751826.77382968
831,52751826.77382968
1043,0.0
2,1, 7,21, 0,13, 0.00,60.00,SummerDesignDay
31,53946949.57530081
831,53946949.57530081
1043,0.0
2,1, 7,21, 0,14, 0.00,60.00,SummerDesignDay
31,54697735.28798528
831,54697735.28798529
1043,0.0
2,1, 7,21, 0,15, 0.00,60.00,SummerDesignDay
31,55064808.57260491
831,55064808.57260491
1043,0.0
2,1, 7,21, 0,16, 0.00,60.00,SummerDesignDay
31,55378505.102602038
831,55378505.102602038
1043,0.0
2,1, 7,21, 0,17, 0.00,60.00,SummerDesignDay
31,54995734.59689994
831,54995734.596899967
1043,0.0
2,1, 7,21, 0,18, 0.00,60.00,SummerDesignDay
31,54190405.75938932
831,54190405.75938932
1043,0.0
2,1, 7,21, 0,19, 0.00,60.00,SummerDesignDay
31,53419067.20469071
831,53419067.20469071
1043,0.0
2,1, 7,21, 0,20, 0.00,60.00,SummerDesignDay
31,47818998.71708138
831,47818998.71708138
1043,0.0
2,1, 7,21, 0,21, 0.00,60.00,SummerDesignDay
31,44728772.5468418
831,44728772.5468418
1043,0.0
2,1, 7,21, 0,22, 0.00,60.00,SummerDesignDay
31,46811119.33134727
831,46811119.331347268
1043,0.0
2,1, 7,21, 0,23, 0.00,60.00,SummerDesignDay
31,42298999.94806793
831,42298999.94806793
1043,0.0
2,1, 7,21, 0,24, 0.00,60.00,SummerDesignDay
31,43719277.75423198
831,43719277.75423198
1043,0.0
1,Phoenix Sky Harbor Intl Ap AZ USA TMY3 WMO#=722780,  33.45,-111.98,  -7.00, 337.00
2,1, 1, 1, 0, 1, 0.00,60.00,Holiday
31,5504338.596677196
831,5504338.596677196
1043,0.0
2,1, 1, 1, 0, 2, 0.00,60.00,Holiday
31,5504338.596677196
831,5504338.596677196
1043,0.0
2,1, 1, 1, 0, 3, 0.00,60.00,Holiday
31,5504338.596677196
831,5504338.596677196
1043,0.0
2,1, 1, 1, 0, 4, 0.00,60.00,Holiday
31,5504338.596677196
831,5504338.596677196
1043,0.0
2,1, 1, 1, 0, 5, 0.00,60.00,Holiday
31,5504338.596677196
831,5504338.596677196
1043,0.0
2,1, 1, 1, 0, 6, 0.00,60.00,Holiday
31,5504338.596677196
831,5504338.596677196
1043,0.0
2,1, 1, 1, 0, 7, 0.00,60.00,Holiday
31,6695938.596677196
831,6695938.596677196
1043,0.0
2,1, 1, 1, 0, 8, 0.00,60.00,Holiday
31,5595598.596677196
831,5595598.596677196
1043,0.0
2,1, 1, 1, 0, 9, 0.00,60.00,Holiday
31,4495258.596677196
831,4495258.596677197
1043,0.0
2,1, 1, 1, 0,10, 0.00,60.00,Holiday
31,4495258.596677196
831,4495258.596677197
1043,0.0
2,1, 1, 1, 0,11, 0.00,60.00,Holiday
31,4495258.596677196
831,4495258.596677196
1043,0.0
2,1, 1, 1, 0,12, 0.00,60.00,Holiday
31,4495258.596677196
831,4495258.596677196
1043,0.0
2,1, 1, 1, 0,13, 0.00,60.00,Holiday
31,4495258.596677196
831,4495258.596677197
1043,0.0
2,1, 1, 1, 0,14, 0.00,60.00,Holiday
31,4495258.596677196
831,4495258.596677196
1043,0.0
2,1, 1, 1, 0,15, 0.00,60.00,Holiday
31,4495258.596677196
831,4495258.596677196
1043,0.0
2,1, 1, 1, 0,16, 0.00,60.00,Holiday
31,4495258.596677196
831,4495258.596677196
1043,0.0
2,1, 1, 1, 0,17, 0.00,60.00,Holiday
31,4495258.596677196
831,4495258.596677197
1043,0.0
2,1, 1, 1, 0,18, 0.00,60.00,Holiday
31,5962378.596677196
831,5962378.596677196
1043,0.0
2,1, 1, 1, 0,19, 0.00,60.00,Holiday
31,6695938.596677196
831,6695938.596677196
1043,0.0
2,1, 1, 1, 0,20, 0.00,60.00,Holiday
31,5894038.596677196
831,5894038.596677195
1043,0.0
2,1, 1, 1, 0,21, 0.00,60.00,Holiday
31,5894038.596677196
831,5894038.596677196
1043,0.0
2,1, 1, 1, 0,22, 0.00,60.00,Holiday
31,5894038.596677196
831,5894038.596677196
1043,0.0
2,1, 1, 1, 0,23, 0.00,60.00,Holiday
31,5894038.596677196
831,5894038.596677196
1043,0.0
2,1, 1, 1, 0,24, 0.00,60.00,Holiday
31,5894038.596677196
831,5894038.596677196
1043,0.0
2,2, 1, 2, 0, 1, 0.00,60.00,Monday
31,8569604.825749658
831,8569604.825749658
1043,0.0
2,2, 1, 2, 0, 2, 0.00,60.00,Monday
31,8569604.825749658
831,8569604.825749658
1043,0.0
2,2, 1, 2, 0, 3, 0.00,60.00,Monday
31,8569604.825749658
831,8569604.825749658
1043,0.0
2,2, 1, 2, 0, 4, 0.00,60.00,Monday
31,8569604.825749658
831,8569604.825749658
1043,0.0
2,2, 1, 2, 0, 5, 0.00,60.00,Monday
31,8569604.825749658
831,8569604.825749658
1043,0.0
2,2, 1, 2, 0, 6, 0.00,60.00,Monday
31,8569604.825749658
831,8569604.825749658
1043,0.0
2,2, 1, 2, 0, 7, 0.00,60.00,Monday
31,18711405.74126311
831,18711405.741263108
1043,0.0
2,2, 1, 2, 0, 8, 0.00,60.00,Monday
31,21101628.829195937
831,21101628.829195937
1043,0.0
2,2, 1, 2, 0, 9, 0.00,60.00,Monday
31,30071117.457365157
831,30071117.45736516
1043,0.0
2,2, 1, 2, 0,10, 0.00,60.00,Monday
31,29391178.840036144
831,29391178.840036144
1043,0.0
2,2, 1, 2, 0,11, 0.00,60.00,Monday
31,30008166.54647755
831,30008166.54647755
1043,0.0
2,2, 1, 2, 0,12, 0.00,60.00,Monday
31,30822163.648605236
831,30822163.648605236
1043,0.0
2,2, 1, 2, 0,13, 0.00,60.00,Monday
31,28173136.815137
831,28173136.815137
1043,0.0
2,2, 1, 2, 0,14, 0.00,60.00,Monday
31,31683747.246756838
831,31683747.24675684
1043,0.0
2,2, 1, 2, 0,15, 0.00,60.00,Monday
31,32297513.00113968
831,32297513.001139687
1043,0.0
2,2, 1, 2, 0,16, 0.00,60.00,Monday
31,32805702.075121639
831,32805702.075121635
1043,0.0
2,2, 1, 2, 0,17, 0.00,60.00,Monday
31,33054238.14426116
831,33054238.14426116
1043,0.0
2,2, 1, 2, 0,18, 0.00,60.00,Monday
31,23020730.6038239
831,23020730.6038239
1043,0.0
2,2, 1, 2, 0,19, 0.00,60.00,Monday
31,17431477.560530727
831,17431477.560530727
1043,0.0
2,2, 1, 2, 0,20, 0.00,60.00,Monday
31,10953154.258345897
831,10953154.258345895
1043,0.0
2,2, 1, 2, 0,21, 0.00,60.00,Monday
31,9737784.395628443
831,9737784.395628443
1043,0.0
2,2, 1, 2, 0,22, 0.00,60.00,Monday
31,9737784.395628443
831,9737784.395628443
1043,0.0
2,2, 1, 2, 0,23, 0.00,60.00,Monday
31,8643951.519120457
831,8643951.519120455
1043,0.0
2,2, 1, 2, 0,24, 0.00,60.00,Monday
31,6297449.08321209
831,6297449.08321209
1043,0.0
2,3, 1, 3, 0, 1, 0.00,60.00,Tuesday
31,8569604.825749658
831,8569604.825749658
1043,0.0
2,3, 1, 3, 0, 2, 0.00,60.00,Tuesday
31,8569604.825749658
831,8569604.825749658
1043,0.0
2,3, 1, 3, 0, 3, 0.00,60.00,Tuesday
31,8569604.825749658
831,8569604.825749658
1043,0.0
2,3, 1, 3, 0, 4, 0.00,60.00,Tuesday
31,8569604.825749658
831,8569604.825749658
1043,0.0
2,3, 1, 3, 0, 5, 0.00,60.00,Tuesday
31,8569604.825749658
831,8569604.825749658
1043,0.0
2,3, 1, 3, 0, 6, 0.00,60.00,Tuesday
31,8569604.825749658
831,8569604.825749658
1043,0.0
2,3, 1, 3, 0, 7, 0.00,60.00,Tuesday
31,18394590.882887938
831,18394590.882887938
1043,0.0
2,3, 1, 3, 0, 8, 0.00,60.00,Tuesday
31,21610989.566384134
831,21610989.56638413
1043,0.0
2,3, 1, 3, 0, 9, 0.00,60.00,Tuesday
31,29764140.03550846
831,29764140.035508466
1043,0.0
2,3, 1, 3, 0,10, 0.00,60.00,Tuesday
31,29573549.68899744
831,29573549.68899745
1043,0.0
2,3, 1, 3, 0,11, 0.00,60.00,Tuesday
31,30393200.737631248
831,30393200.737631248
1043,0.0
2,3, 1, 3, 0,12, 0.00,60.00,Tuesday
31,31212900.08909312
831,31212900.08909312
1043,0.0
2,3, 1, 3, 0,13, 0.00,60.00,Tuesday
31,28466841.52195869
831,28466841.521958688
1043,0.0
2,3, 1, 3, 0,14, 0.00,60.00,Tuesday
31,31836677.106122778
831,31836677.10612278
1043,0.0
2,3, 1, 3, 0,15, 0.00,60.00,Tuesday
31,32374186.909314436
831,32374186.909314448
1043,0.0
2,3, 1, 3, 0,16, 0.00,60.00,Tuesday
31,32634741.64309624
831,32634741.643096243
1043,0.0
2,3, 1, 3, 0,17, 0.00,60.00,Tuesday
31,33232372.509872699
831,33232372.509872699
1043,0.0
2,3, 1, 3, 0,18, 0.00,60.00,Tuesday
31,23259576.64499121
831,23259576.644991209
1043,0.0
2,3, 1, 3, 0,19, 0.00,60.00,Tuesday
31,17431477.560530727
831,17431477.560530727
1043,0.0
2,3, 1, 3, 0,20, 0.00,60.00,Tuesday
31,10953154.258345897
831,10953154.258345895
1043,0.0
2,3, 1, 3, 0,21, 0.00,60.00,Tuesday
31,9737784.395628443
831,9737784.395628443
1043,0.0
2,3, 1, 3, 0,22, 0.00,60.00,Tuesday
31,9737784.395628443
831,9737784.395628443
1043,0.0
2,3, 1, 3, 0,23, 0.00,60.00,Tuesday
31,8643951.519120457
831,8643951.519120455
1043,0.0
2,3, 1, 3, 0,24, 0.00,60.00,Tuesday
31,6297449.08321209
831,6297449.08321209
1043,0.0
2,4, 1, 4, 0, 1, 0.00,60.00,Wednesday
31,8569604.825749658
831,8569604.825749658
1043,0.0
2,4, 1, 4, 0, 2, 0.00,60.00,Wednesday
31,8569604.825749658
831,8569604.825749658
1043,0.0
2,4, 1, 4, 0, 3, 0.00,60.00,Wednesday
31,8569604.825749658
831,8569604.825749658
1043,0.0
2,4, 1, 4, 0, 4, 0.00,60.00,Wednesday
31,8569604.825749658
831,8569604.825749658
1043,0.0
2,4, 1, 4, 0, 5, 0.00,60.00,Wednesday
31,8569604.825749658
831,8569604.825749658
1043,0.0
2,4, 1, 4, 0, 6, 0.00,60.00,Wednesday
31,8569604.825749658
831,8569604.825749658
1043,0.0
2,4, 1, 4, 0, 7, 0.00,60.00,Wednesday
31,19229153.459095815
831,19229153.459095815
1043,0.0
2,4, 1, 4, 0, 8, 0.00,60.00,Wednesday
31,22783433.708938846
831,22783433.708938846
1043,0.0
2,4, 1, 4, 0, 9, 0.00,60.00,Wednesday
31,29686905.968155654
831,29686905.968155654
1043,0.0
2,4, 1, 4, 0,10, 0.00,60.00,Wednesday
31,29654135.7787546
831,29654135.778754604
1043,0.0
2,4, 1, 4, 0,11, 0.00,60.00,Wednesday
31,30413486.161125397
831,30413486.16112539
1043,0.0
2,4, 1, 4, 0,12, 0.00,60.00,Wednesday
31,31219703.029172869
831,31219703.029172876
1043,0.0
2,4, 1, 4, 0,13, 0.00,60.00,Wednesday
31,29082138.915636388
831,29082138.915636388
1043,0.0
2,4, 1, 4, 0,14, 0.00,60.00,Wednesday
31,33409389.743010194
831,33409389.743010194
1043,0.0
2,4, 1, 4, 0,15, 0.00,60.00,Wednesday
31,34314892.55865477
831,34314892.55865476
1043,0.0
2,4, 1, 4, 0,16, 0.00,60.00,Wednesday
31,34891237.48297047
831,34891237.482970479
1043,0.0
2,4, 1, 4, 0,17, 0.00,60.00,Wednesday
31,34925955.11640222
831,34925955.11640222
1043,0.0
2,4, 1, 4, 0,18, 0.00,60.00,Wednesday
31,23920256.064398137
831,23920256.064398134
1043,0.0
2,4, 1, 4, 0,19, 0.00,60.00,Wednesday
31,17431477.560530727
831,17431477.560530727
1043,0.0
2,4, 1, 4, 0,20, 0.00,60.00,Wednesday
31,10953154.258345897
831,10953154.258345895
1043,0.0
2,4, 1, 4, 0,21, 0.00,60.00,Wednesday
31,9737784.395628443
831,9737784.395628443
1043,0.0
2,4, 1, 4, 0,22, 0.00,60.00,Wednesday
31,9737784.395628443
831,9737784.395628443
1043,0.0
2,4, 1, 4, 0,23, 0.00,60.00,Wednesday
31,8643951.519120457
831,8643951.519120455
1043,0.0
2,4, 1, 4, 0,24, 0.00,60.00,Wednesday
31,6297449.08321209
831,6297449.08321209
1043,0.0
2,5, 1, 5, 0, 1, 0.00,60.00,Thursday
31,8569604.825749658
831,8569604.825749658
1043,0.0
2,5, 1, 5, 0, 2, 0.00,60.00,Thursday
31,8569604.825749658
831,8569604.825749658
1043,0.0
2,5, 1, 5, 0, 3, 0.00,60.00,Thursday
31,8569604.825749658
831,8569604.825749658
1043,0.0
2,5, 1, 5, 0, 4, 0.00,60.00,Thursday
31,8569604.825749658
831,8569604.825749658
1043,0.0
2,5, 1, 5, 0, 5, 0.00,60.00,Thursday
31,8569604.825749658
831,8569604.825749658
1043,0.0
2,5, 1, 5, 0, 6, 0.00,60.00,Thursday
31,8569604.825749658
831,8569604.825749658
1043,0.0
2,5, 1, 5, 0, 7, 0.00,60.00,Thursday
31,18939039.160956883
831,18939039.160956883
1043,0.0
2,5, 1, 5, 0, 8, 0.00,60.00,Thursday
31,23071537.561072723
831,23071537.561072723
1043,0.0
2,5, 1, 5, 0, 9, 0.00,60.00,Thursday
31,29686905.968155654
831,29686905.968155654
1043,0.0
2,5, 1, 5, 0,10, 0.00,60.00,Thursday
31,29658088.562996907
831,29658088.56299691
1043,0.0
2,5, 1, 5, 0,11, 0.00,60.00,Thursday
31,30532545.840015845
831,30532545.840015837
1043,0.0
2,5, 1, 5, 0,12, 0.00,60.00,Thursday
31,31421336.978372709
831,31421336.978372709
1043,0.0
2,5, 1, 5, 0,13, 0.00,60.00,Thursday
31,29198742.024963008
831,29198742.024963008
1043,0.0
2,5, 1, 5, 0,14, 0.00,60.00,Thursday
31,33662989.238711129
831,33662989.23871112
1043,0.0
2,5, 1, 5, 0,15, 0.00,60.00,Thursday
31,34302186.2179167
831,34302186.2179167
1043,0.0
2,5, 1, 5, 0,16, 0.00,60.00,Thursday
31,34567030.84268024
831,34567030.84268024
1043,0.0
2,5, 1, 5, 0,17, 0.00,60.00,Thursday
31,34551407.72412508
831,34551407.72412509
1043,0.0
2,5, 1, 5, 0,18, 0.00,60.00,Thursday
31,23510285.365883605
831,23510285.365883605
1043,0.0
2,5, 1, 5, 0,19, 0.00,60.00,Thursday
31,17431477.560530727
831,17431477.560530727
1043,0.0
2,5, 1, 5, 0,20, 0.00,60.00,Thursday
31,10953154.258345897
831,10953154.258345895
1043,0.0
2,5, 1, 5, 0,21, 0.00,60.00,Thursday
31,9737784.395628443
831,9737784.395628443
1043,0.0
2,5, 1, 5, 0,22, 0.00,60.00,Thursday
31,9737784.395628443
831,9737784.395628443
1043,0.0
2,5, 1, 5, 0,23, 0.00,60.00,Thursday
31,8643951.519120457
831,8643951.519120455
1043,0.0
2,5, 1, 5, 0,24, 0.00,60.00,Thursday
31,6297449.08321209
831,6297449.08321209
1043,0.0
2,6, 1, 6, 0, 1, 0.00,60.00,Friday
31,8569604.825749658
831,8569604.825749658
1043,0.0
2,6, 1, 6, 0, 2, 0.00,60.00,Friday
31,8569604.825749658
831,8569604.825749658
1043,0.0
2,6, 1, 6, 0, 3, 0.00,60.00,Friday
31,8569604.825749658
831,8569604.825749658
1043,0.0
2,6, 1, 6, 0, 4, 0.00,60.00,Friday
31,8569604.825749658
831,8569604.825749658
1043,0.0
2,6, 1, 6, 0, 5, 0.00,60.00,Friday
31,8569604.825749658
831,8569604.825749658
1043,0.0
2,6, 1, 6, 0, 6, 0.00,60.00,Friday
31,8569604.825749658
831,8569604.825749658
1043,0.0
2,6, 1, 6, 0, 7, 0.00,60.00,Friday
31,20097093.334918295
831,20097093.334918295
1043,0.0
2,6, 1, 6, 0, 8, 0.00,60.00,Friday
31,23744686.912354728
831,23744686.912354728
1043,0.0
2,6, 1, 6, 0, 9, 0.00,60.00,Friday
31,30056939.023231385
831,30056939.023231385
1043,0.0
2,6, 1, 6, 0,10, 0.00,60.00,Friday
31,29338985.726286975
831,29338985.726286975
1043,0.0
2,6, 1, 6, 0,11, 0.00,60.00,Friday
31,29435779.048486499
831,29435779.04848649
1043,0.0
2,6, 1, 6, 0,12, 0.00,60.00,Friday
31,30510735.224889324
831,30510735.224889324
1043,0.0
2,6, 1, 6, 0,13, 0.00,60.00,Friday
31,28273825.27289295
831,28273825.272892946
1043,0.0
2,6, 1, 6, 0,14, 0.00,60.00,Friday
31,32756907.98028033
831,32756907.980280337
1043,0.0
2,6, 1, 6, 0,15, 0.00,60.00,Friday
31,33674836.384949859
831,33674836.384949859
1043,0.0
2,6, 1, 6, 0,16, 0.00,60.00,Friday
31,34445698.405361268
831,34445698.405361268
1043,0.0
2,6, 1, 6, 0,17, 0.00,60.00,Friday
31,34606265.24086343
831,34606265.240863438
1043,0.0
2,6, 1, 6, 0,18, 0.00,60.00,Friday
31,23789658.015948968
831,23789658.015948968
1043,0.0
2,6, 1, 6, 0,19, 0.00,60.00,Friday
31,17431477.560530727
831,17431477.560530727
1043,0.0
2,6, 1, 6, 0,20, 0.00,60.00,Friday
31,10953154.258345897
831,10953154.258345895
1043,0.0
2,6, 1, 6, 0,21, 0.00,60.00,Friday
31,9737784.395628443
831,9737784.395628443
1043,0.0
2,6, 1, 6, 0,22, 0.00,60.00,Friday
31,9737784.395628443
831,9737784.395628443
1043,0.0
2,6, 1, 6, 0,23, 0.00,60.00,Friday
31,8643951.519120457
831,8643951.519120455
1043,0.0
2,6, 1, 6, 0,24, 0.00,60.00,Friday
31,6297449.08321209
831,6297449.08321209
1043,0.0
2,7, 1, 7, 0, 1, 0.00,60.00,Saturday
31,5504338.596677196
831,5504338.596677196
1043,0.0
2,7, 1, 7, 0, 2, 0.00,60.00,Saturday
31,5504338.596677196
831,5504338.596677196
1043,0.0
2,7, 1, 7, 0, 3, 0.00,60.00,Saturday
31,5504338.596677196
831,5504338.596677196
1043,0.0
2,7, 1, 7, 0, 4, 0.00,60.00,Saturday
31,5504338.596677196
831,5504338.596677196
1043,0.0
2,7, 1, 7, 0, 5, 0.00,60.00,Saturday
31,5504338.596677196
831,5504338.596677196
1043,0.0
2,7, 1, 7, 0, 6, 0.00,60.00,Saturday
31,5504338.596677196
831,5504338.596677196
1043,0.0
2,7, 1, 7, 0, 7, 0.00,60.00,Saturday
31,6695938.596677196
831,6695938.596677196
1043,0.0
2,7, 1, 7, 0, 8, 0.00,60.00,Saturday
31,5595598.596677196
831,5595598.596677196
1043,0.0
2,7, 1, 7, 0, 9, 0.00,60.00,Saturday
31,4495258.596677196
831,4495258.596677197
1043,0.0
2,7, 1, 7, 0,10, 0.00,60.00,Saturday
31,4495258.596677196
831,4495258.596677196
1043,0.0
2,7, 1, 7, 0,11, 0.00,60.00,Saturday
31,4495258.596677196
831,4495258.596677196
1043,0.0
2,7, 1, 7, 0,12, 0.00,60.00,Saturday
31,4495258.596677196
831,4495258.596677196
1043,0.0
2,7, 1, 7, 0,13, 0.00,60.00,Saturday
31,4495258.596677196
831,4495258.596677197
1043,0.0
2,7, 1, 7, 0,14, 0.00,60.00,Saturday
31,4495258.596677196
831,4495258.596677196
1043,0.0
2,7, 1, 7, 0,15, 0.00,60.00,Saturday
31,4495258.596677196
831,4495258.596677196
1043,0.0
2,7, 1, 7, 0,16, 0.00,60.00,Saturday
31,4495258.596677196
831,4495258.596677196
1043,0.0
2,7, 1, 7, 0,17, 0.00,60.00,Saturday
31,4495258.596677196
831,4495258.596677197
1043,0.0
2,7, 1, 7, 0,18, 0.00,60.00,Saturday
31,5595598.596677196
831,5595598.596677196
1043,0.0
2,7, 1, 7, 0,19, 0.00,60.00,Saturday
31,6695938.596677196
831,6695938.596677196
1043,0.0
2,7, 1, 7, 0,20, 0.00,60.00,Saturday
31,5894038.596677196
831,5894038.596677195
1043,0.0
2,7, 1, 7, 0,21, 0.00,60.00,Saturday
31,5894038.596677196
831,5894038.596677196
1043,0.0
2,7, 1, 7, 0,22, 0.00,60.00,Saturday
31,5894038.596677196
831,5894038.596677196
1043,0.0
2,7, 1, 7, 0,23, 0.00,60.00,Saturday
31,5894038.596677196
831,5894038.596677196
1043,0.0
2,7, 1, 7, 0,24, 0.00,60.00,Saturday
31,5894038.596677196
831,5894038.596677196
1043,0.0
2,8, 1, 8, 0, 1, 0.00,60.00,Sunday
31,5504338.596677196
831,5504338.596677196
1043,0.0
2,8, 1, 8, 0, 2, 0.00,60.00,Sunday
31,5504338.596677196
831,5504338.596677196
1043,0.0
2,8, 1, 8, 0, 3, 0.00,60.00,Sunday
31,5504338.596677196
831,5504338.596677196
1043,0.0
2,8, 1, 8, 0, 4, 0.00,60.00,Sunday
31,5504338.596677196
831,5504338.596677196
1043,0.0
2,8, 1, 8, 0, 5, 0.00,60.00,Sunday
31,5504338.596677196
831,5504338.596677196
1043,0.0
2,8, 1, 8, 0, 6, 0.00,60.00,Sunday
31,5504338.596677196
831,5504338.596677196
1043,0.0
2,8, 1, 8, 0, 7, 0.00,60.00,Sunday
31,6695938.596677196
831,6695938.596677196
1043,0.0
2,8, 1, 8, 0, 8, 0.00,60.00,Sunday
31,5595598.596677196
831,5595598.596677196
1043,0.0
2,8, 1, 8, 0, 9, 0.00,60.00,Sunday
31,4495258.596677196
831,4495258.596677196
1043,0.0
2,8, 1, 8, 0,10, 0.00,60.00,Sunday
31,4495258.596677196
831,4495258.596677197
1043,0.0
2,8, 1, 8, 0,11, 0.00,60.00,Sunday
31,4495258.596677196
831,4495258.596677197
1043,0.0
2,8, 1, 8, 0,12, 0.00,60.00,Sunday
31,4495258.596677196
831,4495258.596677197
1043,0.0
2,8, 1, 8, 0,13, 0.00,60.00,Sunday
31,4495258.596677196
831,4495258.596677197
1043,0.0
2,8, 1, 8, 0,14, 0.00,60.00,Sunday
31,4495258.596677196
831,4495258.596677196
1043,0.0
2,8, 1, 8, 0,15, 0.00,60.00,Sunday
31,4495258.596677196
831,4495258.596677196
1043,0.0
2,8, 1, 8, 0,16, 0.00,60.00,Sunday
31,4495258.596677196
831,4495258.596677197
1043,0.0
2,8, 1, 8, 0,17, 0.00,60.00,Sunday
31,4495258.596677196
831,4495258.596677196
1043,0.0
2,8, 1, 8, 0,18, 0.00,60.00,Sunday
31,5595598.596677196
831,5595598.596677196
1043,0.0
2,8, 1, 8, 0,19, 0.00,60.00,Sunday
31,6695938.596677196
831,6695938.596677195
1043,0.0
2,8, 1, 8, 0,20, 0.00,60.00,Sunday
31,5894038.596677196
831,5894038.596677195
1043,0.0
2,8, 1, 8, 0,21, 0.00,60.00,Sunday
31,5894038.596677196
831,5894038.596677196
1043,0.0
2,8, 1, 8, 0,22, 0.00,60.00,Sunday
31,5894038.596677196
831,5894038.596677196
1043,0.0
2,8, 1, 8, 0,23, 0.00,60.00,Sunday
31,5894038.596677196
831,5894038.596677196
1043,0.0
2,8, 1, 8, 0,24, 0.00,60.00,Sunday
31,5894038.596677196
831,5894038.596677196
1043,0.0
2,9, 1, 9, 0, 1, 0.00,60.00,Monday
31,8569604.825749658
831,8569604.825749658
1043,0.0
2,9, 1, 9, 0, 2, 0.00,60.00,Monday
31,8569604.825749658
831,8569604.825749658
1043,0.0
2,9, 1, 9, 0, 3, 0.00,60.00,Monday
31,8569604.825749658
831,8569604.825749658
1043,0.0
2,9, 1, 9, 0, 4, 0.00,60.00,Monday
31,8569604.825749658
831,8569604.825749658
1043,0.0
2,9, 1, 9, 0, 5, 0.00,60.00,Monday
31,8569604.825749658
831,8569604.825749658
1043,0.0
2,9, 1, 9, 0, 6, 0.00,60.00,Monday
31,8569604.825749658
831,8569604.825749658
1043,0.0
2,9, 1, 9, 0, 7, 0.00,60.00,Monday
31,18313738.92245166
831,18313738.92245166
1043,0.0
2,9, 1, 9, 0, 8, 0.00,60.00,Monday
31,20673969.582101976
831,20673969.58210197
1043,0.0
2,9, 1, 9, 0, 9, 0.00,60.00,Monday
31,29757650.567977404
831,29757650.567977404
1043,0.0
2,9, 1, 9, 0,10, 0.00,60.00,Monday
31,29696870.822559619
831,29696870.822559619
1043,0.0
2,9, 1, 9, 0,11, 0.00,60.00,Monday
31,31074132.3228926
831,31074132.322892608
1043,0.0
2,9, 1, 9, 0,12, 0.00,60.00,Monday
31,32267086.692132597
831,32267086.692132594
1043,0.0
2,9, 1, 9, 0,13, 0.00,60.00,Monday
31,30248978.01347556
831,30248978.013475568
1043,0.0
2,9, 1, 9, 0,14, 0.00,60.00,Monday
31,33886396.11863102
831,33886396.11863102
1043,0.0
2,9, 1, 9, 0,15, 0.00,60.00,Monday
31,34626242.00187341
831,34626242.00187342
1043,0.0
2,9, 1, 9, 0,16, 0.00,60.00,Monday
31,34922935.50110686
831,34922935.50110687
1043,0.0
2,9, 1, 9, 0,17, 0.00,60.00,Monday
31,35192641.27172755
831,35192641.27172755
1043,0.0
2,9, 1, 9, 0,18, 0.00,60.00,Monday
31,24430428.32418307
831,24430428.32418307
1043,0.0
2,9, 1, 9, 0,19, 0.00,60.00,Monday
31,17431477.560530727
831,17431477.560530727
1043,0.0
2,9, 1, 9, 0,20, 0.00,60.00,Monday
31,10953154.258345897
831,10953154.258345895
1043,0.0
2,9, 1, 9, 0,21, 0.00,60.00,Monday
31,9737784.395628443
831,9737784.395628443
1043,0.0
2,9, 1, 9, 0,22, 0.00,60.00,Monday
31,9737784.395628443
831,9737784.395628443
1043,0.0
2,9, 1, 9, 0,23, 0.00,60.00,Monday
31,8643951.519120457
831,8643951.519120455
1043,0.0
2,9, 1, 9, 0,24, 0.00,60.00,Monday
31,6297449.08321209
831,6297449.08321209
1043,0.0
2,10, 1,10, 0, 1, 0.00,60.00,Tuesday
31,8569604.825749658
831,8569604.825749658
1043,0.0
2,10, 1,10, 0, 2, 0.00,60.00,Tuesday
31,8569604.825749658
831,8569604.825749658
1043,0.0
2,10, 1,10, 0, 3, 0.00,60.00,Tuesday
31,8569604.825749658
831,8569604.825749658
1043,0.0
2,10, 1,10, 0, 4, 0.00,60.00,Tuesday
31,8569604.825749658
831,8569604.825749658
1043,0.0
2,10, 1,10, 0, 5, 0.00,60.00,Tuesday
31,8569604.825749658
831,8569604.825749658
1043,0.0
2,10, 1,10, 0, 6, 0.00,60.00,Tuesday
31,8569604.825749658
831,8569604.825749658
1043,0.0
2,10, 1,10, 0, 7, 0.00,60.00,Tuesday
31,18313738.92245166
831,18313738.92245166
1043,0.0
2,10, 1,10, 0, 8, 0.00,60.00,Tuesday
31,20282346.039614019
831,20282346.039614019
1043,0.0
2,10, 1,10, 0, 9, 0.00,60.00,Tuesday
31,30641456.24105575
831,30641456.241055754
1043,0.0
2,10, 1,10, 0,10, 0.00,60.00,Tuesday
31,30243792.211712004
831,30243792.211712
1043,0.0
2,10, 1,10, 0,11, 0.00,60.00,Tuesday
31,30552646.988485297
831,30552646.98848529
1043,0.0
2,10, 1,10, 0,12, 0.00,60.00,Tuesday
31,32284256.84683428
831,32284256.84683428
1043,0.0
2,10, 1,10, 0,13, 0.00,60.00,Tuesday
31,30981371.721400039
831,30981371.721400039
1043,0.0
2,10, 1,10, 0,14, 0.00,60.00,Tuesday
31,35144201.43290445
831,35144201.43290446
1043,0.0
2,10, 1,10, 0,15, 0.00,60.00,Tuesday
31,35409654.42359042
831,35409654.42359043
1043,0.0
2,10, 1,10, 0,16, 0.00,60.00,Tuesday
31,36198747.60275285
831,36198747.60275285
1043,0.0
2,10, 1,10, 0,17, 0.00,60.00,Tuesday
31,35685868.04224532
831,35685868.04224532
1043,0.0
2,10, 1,10, 0,18, 0.00,60.00,Tuesday
31,23311368.30753214
831,23311368.30753213
1043,0.0
2,10, 1,10, 0,19, 0.00,60.00,Tuesday
31,17431477.560530727
831,17431477.560530727
1043,0.0
2,10, 1,10, 0,20, 0.00,60.00,Tuesday
31,10953154.258345897
831,10953154.258345895
1043,0.0
2,10, 1,10, 0,21, 0.00,60.00,Tuesday
31,9737784.395628443
831,9737784.395628443
1043,0.0
2,10, 1,10, 0,22, 0.00,60.00,Tuesday
31,9737784.395628443
831,9737784.395628443
1043,0.0
2,10, 1,10, 0,23, 0.00,60.00,Tuesday
31,8643951.519120457
831,8643951.519120455
1043,0.0
2,10, 1,10, 0,24, 0.00,60.00,Tuesday
31,6297449.08321209
831,6297449.08321209
1043,0.0
2,11, 1,11, 0, 1, 0.00,60.00,Wednesday
31,8569604.825749658
831,8569604.825749658
1043,0.0
2,11, 1,11, 0, 2, 0.00,60.00,Wednesday
31,8569604.825749658
831,8569604.825749658
1043,0.0
2,11, 1,11, 0, 3, 0.00,60.00,Wednesday
31,8569604.825749658
831,8569604.825749658
1043,0.0
2,11, 1,11, 0, 4, 0.00,60.00,Wednesday
31,8569604.825749658
831,8569604.825749658
1043,0.0
2,11, 1,11, 0, 5, 0.00,60.00,Wednesday
31,8569604.825749658
831,8569604.825749658
1043,0.0
2,11, 1,11, 0, 6, 0.00,60.00,Wednesday
31,8569604.825749658
831,8569604.825749658
1043,0.0
2,11, 1,11, 0, 7, 0.00,60.00,Wednesday
31,18313738.92245166
831,18313738.92245166
1043,0.0
2,11, 1,11, 0, 8, 0.00,60.00,Wednesday
31,20603055.650740357
831,20603055.650740357
1043,0.0
2,11, 1,11, 0, 9, 0.00,60.00,Wednesday
31,29748148.16692351
831,29748148.166923517
1043,0.0
2,11, 1,11, 0,10, 0.00,60.00,Wednesday
31,30919917.02355524
831,30919917.02355525
1043,0.0
2,11, 1,11, 0,11, 0.00,60.00,Wednesday
31,32559066.462060013
831,32559066.462060013
1043,0.0
2,11, 1,11, 0,12, 0.00,60.00,Wednesday
31,34126839.173270989
831,34126839.173270989
1043,0.0
2,11, 1,11, 0,13, 0.00,60.00,Wednesday
31,32442260.939633818
831,32442260.939633818
1043,0.0
2,11, 1,11, 0,14, 0.00,60.00,Wednesday
31,35972636.7767071
831,35972636.776707109
1043,0.0
2,11, 1,11, 0,15, 0.00,60.00,Wednesday
31,36446285.17822996
831,36446285.17822994
1043,0.0
2,11, 1,11, 0,16, 0.00,60.00,Wednesday
31,37009262.60525617
831,37009262.60525616
1043,0.0
2,11, 1,11, 0,17, 0.00,60.00,Wednesday
31,37090774.69903735
831,37090774.69903736
1043,0.0
2,11, 1,11, 0,18, 0.00,60.00,Wednesday
31,25973253.226426528
831,25973253.226426528
1043,0.0
2,11, 1,11, 0,19, 0.00,60.00,Wednesday
31,17431477.560530727
831,17431477.560530727
1043,0.0
2,11, 1,11, 0,20, 0.00,60.00,Wednesday
31,10953154.258345897
831,10953154.258345895
1043,0.0
2,11, 1,11, 0,21, 0.00,60.00,Wednesday
31,9737784.395628443
831,9737784.395628443
1043,0.0
2,11, 1,11, 0,22, 0.00,60.00,Wednesday
31,9737784.395628443
831,9737784.395628443
1043,0.0
2,11, 1,11, 0,23, 0.00,60.00,Wednesday
31,8643951.519120457
831,8643951.519120455
1043,0.0
2,11, 1,11, 0,24, 0.00,60.00,Wednesday
31,6297449.08321209
831,6297449.08321209
1043,0.0
2,12, 1,12, 0, 1, 0.00,60.00,Thursday
31,8569604.825749658
831,8569604.825749658
1043,0.0
2,12, 1,12, 0, 2, 0.00,60.00,Thursday
31,8569604.825749658
831,8569604.825749658
1043,0.0
2,12, 1,12, 0, 3, 0.00,60.00,Thursday
31,8569604.825749658
831,8569604.825749658
1043,0.0
2,12, 1,12, 0, 4, 0.00,60.00,Thursday
31,8569604.825749658
831,8569604.825749658
1043,0.0
2,12, 1,12, 0, 5, 0.00,60.00,Thursday
31,8569604.825749658
831,8569604.825749658
1043,0.0
2,12, 1,12, 0, 6, 0.00,60.00,Thursday
31,8569604.825749658
831,8569604.825749658
1043,0.0
2,12, 1,12, 0, 7, 0.00,60.00,Thursday
31,18313738.92245166