Program Version,EnergyPlus, Version 8.6.0-198c6a3cff, YMD=2019.03.03 19:12
1,5,Environment Title[],Latitude[deg],Longitude[deg],Time Zone[],Elevation[m]
2,6,Day of Simulation[],Month[],Day of Month[],DST Indicator[1=yes 0=no],Hour[],StartMinute[],EndMinute[],DayType
3,3,Cumulative Day of Simulation[],Month[],Day of Month[],DST Indicator[1=yes 0=no],DayType  ! When Daily Report Variables Requested
4,2,Cumulative Days of Simulation[],Month[]  ! When Monthly Report Variables Requested
5,1,Cumulative Days of Simulation[] ! When Run Period Report Variables Requested
525,1,CORE_ZN,Zone Predicted Sensible Load to Setpoint Heat Transfer Rate [W] !Hourly
526,1,CORE_ZN,Zone Predicted Sensible Load to Heating Setpoint Heat Transfer Rate [W] !Hourly
527,1,CORE_ZN,Zone Predicted Sensible Load to Cooling Setpoint Heat Transfer Rate [W] !Hourly
562,1,PERIMETER_ZN_1,Zone Predicted Sensible Load to Setpoint Heat Transfer Rate [W] !Hourly
563,1,PERIMETER_ZN_1,Zone Predicted Sensible Load to Heating Setpoint Heat Transfer Rate [W] !Hourly
564,1,PERIMETER_ZN_1,Zone Predicted Sensible Load to Cooling Setpoint Heat Transfer Rate [W] !Hourly
599,1,PERIMETER_ZN_2,Zone Predicted Sensible Load to Setpoint Heat Transfer Rate [W] !Hourly
600,1,PERIMETER_ZN_2,Zone Predicted Sensible Load to Heating Setpoint Heat Transfer Rate [W] !Hourly
601,1,PERIMETER_ZN_2,Zone Predicted Sensible Load to Cooling Setpoint Heat Transfer Rate [W] !Hourly
636,1,PERIMETER_ZN_3,Zone Predicted Sensible Load to Setpoint Heat Transfer Rate [W] !Hourly
637,1,PERIMETER_ZN_3,Zone Predicted Sensible Load to Heating Setpoint Heat Transfer Rate [W] !Hourly
638,1,PERIMETER_ZN_3,Zone Predicted Sensible Load to Cooling Setpoint Heat Transfer Rate [W] !Hourly
673,1,PERIMETER_ZN_4,Zone Predicted Sensible Load to Setpoint Heat Transfer Rate [W] !Hourly
674,1,PERIMETER_ZN_4,Zone Predicted Sensible Load to Heating Setpoint Heat Transfer Rate [W] !Hourly
675,1,PERIMETER_ZN_4,Zone Predicted Sensible Load to Cooling Setpoint Heat Transfer Rate [W] !Hourly
710,1,ATTIC,Zone Predicted Sensible Load to Setpoint Heat Transfer Rate [W] !Hourly
711,1,ATTIC,Zone Predicted Sensible Load to Heating Setpoint Heat Transfer Rate [W] !Hourly
712,1,ATTIC,Zone Predicted Sensible Load to Cooling Setpoint Heat Transfer Rate [W] !Hourly
End of Data Dictionary
1,TUCSON-DAVIS-MONTHAN.AFB_AZ_USA ANN HTG 99.6% CONDNS DB,  33.45,-111.98,  -7.00, 337.00
2,1,12,21, 0, 1, 0.00,60.00,WinterDesignDay
525,1316.0927579427253
526,1294.5447842010074
527,37816.419073853256
562,1796.94041596625
563,1789.379263206168
564,30762.541388398076
599,1062.4856815080593
600,1017.6749947431389
601,18346.13130026471
636,1728.3971991904275
637,1669.5137108498154
638,30577.311870655936
673,1065.9430333021967
674,1025.189022153774
675,18354.952722971593
710,0.0
711,0.0
712,0.0
2,1,12,21, 0, 2, 0.00,60.00,WinterDesignDay
525,998.2096060728936
526,920.6020916842926
527,37098.011687407095
562,1514.342949338264
563,1514.342949338264
564,30854.143249890563
599,1246.0179090304869
600,1201.4128699425523
601,18817.06733603153
636,2024.1185534684282
637,1964.777579077947
638,31327.704316119944
673,1250.3960733718602
674,1209.7498323584232
675,18828.148855395022
710,0.0
711,0.0
712,0.0
2,1,12,21, 0, 3, 0.00,60.00,WinterDesignDay
525,1043.7770907391568
526,967.115853583227
527,37630.293430714046
562,1781.0927247431748
563,1781.0927247431748
564,30642.16154103339
599,1088.4054510336932
600,999.533284164508
601,18326.906160300514
636,1774.4263004236325
637,1655.9825035390597
638,30560.73538081256
673,1092.96755196424
674,1011.9687668505375
675,18339.530663201975
710,0.0
711,0.0
712,0.0
2,1,12,21, 0, 4, 0.00,60.00,WinterDesignDay
525,1241.6181848019748
526,1192.435692132531
527,35914.195122801095
562,1416.2914006207693
563,1416.2914006207693
564,29149.40649946312
599,1260.2251970138454
600,1215.7824949484773
601,17876.87538684205
636,2044.7856049890868
637,1985.512122255387
638,29741.84693602417
673,1264.014642022819
674,1223.504028869341
675,17888.075482155098
710,0.0
711,0.0
712,0.0
2,1,12,21, 0, 5, 0.00,60.00,WinterDesignDay
525,1269.0245516340656
526,1173.186497558028
527,37799.95925090326
562,1779.8740443450079
563,1779.8740443450079
564,30646.58257930623
599,1086.7746042083843
600,998.163718011641
601,18324.50813905422
636,1772.1038028079536
637,1653.339651816026
638,30559.01480655991
673,1091.6535629110738
674,1010.9061200592877
675,18337.93497408023
710,0.0
711,0.0
712,0.0
2,1,12,21, 0, 6, 0.00,60.00,WinterDesignDay
525,1147.320654073829
526,1100.120573724821
527,35766.71634129195
562,1414.5740754069873
563,1414.5740754069873
564,29146.86200242116
599,1258.2015459127347
600,1213.966006051263
601,17873.29352744335
636,2041.550519617962
637,1981.9490504812122
638,29736.49567809382
673,1262.2311617821806
674,1221.9250575886115
675,17885.06072191361
710,0.0
711,0.0
712,0.0
2,1,12,21, 0, 7, 0.00,60.00,WinterDesignDay
525,1240.2638507391641
526,1146.7879178933613
527,37753.171172950744
562,1778.886046190771
563,1778.886046190771
564,30646.18696688108
599,1085.6761208358728
600,997.2609550455949
601,18322.74080551406
636,1770.236785000322
637,1650.6554139830423
638,30556.10546458093
673,1090.7130520185156
674,1010.1552354947247
675,18336.568992892262
710,0.0
711,0.0
712,0.0
2,1,12,21, 0, 8, 0.00,60.00,WinterDesignDay
525,1145.619896440227
526,1122.390793313283
527,35419.086225444735
562,1328.1689481748251
563,1307.9842055872448
564,29049.736871714555
599,1137.8635366560036
600,1137.8635366560036
601,17797.434800737035
636,1852.782519675534
637,1852.782519675534
638,29584.94625568518
673,1141.762057906308
674,1141.762057906308
675,17807.014152405132
710,0.0
711,0.0
712,0.0
2,1,12,21, 0, 9, 0.00,60.00,WinterDesignDay
525,1322.8914677369949
526,1300.0759853162692
527,35664.12502650228
562,1592.1270030136327
563,1553.3286633785867
564,28855.063655949732
599,973.235187447146
600,973.235187447146
601,17369.11227971873
636,1583.8172741734406
637,1583.8172741734406
638,28862.51986963594
673,976.4737488967279
674,976.4737488967279
675,17376.795947867668
710,0.0
711,0.0
712,0.0
2,1,12,21, 0,10, 0.00,60.00,WinterDesignDay
525,898.3215194966334
526,852.8433632133006
527,37603.732280556695
562,1409.0343921455694
563,1389.7350279047657
564,30736.07450771687
599,1114.6548813671582
600,1114.6548813671582
601,18726.024771366345
636,1817.2285711744528
637,1817.2285711744528
638,31148.54770282931
673,1118.5661055312087
674,1118.5661055312087
675,18734.142022196018
710,0.0
711,0.0
712,0.0
2,1,12,21, 0,11, 0.00,60.00,WinterDesignDay
525,1322.3490137658584
526,1299.6021080941748
527,35657.69498112076
562,1581.3949988268425
563,1542.881541440686
564,28832.174504015766
599,972.312602764654
600,972.312602764654
601,17366.977732355863
636,1582.604855838755
637,1582.604855838755
638,28862.35983777675
673,975.1489918463661
674,975.1489918463661
675,17373.749774250744
710,0.0
711,0.0
712,0.0
2,1,12,21, 0,12, 0.00,60.00,WinterDesignDay
525,902.2560365752379
526,856.6525086995249
527,37607.26316420606
562,1403.5104922171192
563,1384.2783293586244
564,30722.65532537087
599,1113.8771357939374
600,1113.8771357939374
601,18724.26331149043
636,1816.0403240678115
637,1816.0403240678115
638,31146.31178557563
673,1117.5512270768559
674,1117.5512270768559
675,18731.863315558974
710,0.0
711,0.0
712,0.0
2,1,12,21, 0,13, 0.00,60.00,WinterDesignDay
525,1333.628690813562
526,1310.754252704529
527,35667.30065048633
562,1577.2346161636922
563,1538.8006343276031
564,28823.045878073888
599,971.7875717817666
600,971.7875717817666
601,17365.673796076604
636,1581.8251019816832
637,1581.8251019816832
638,28860.70963712192
673,974.4887896681806
674,974.4887896681806
675,17372.132855781234
710,0.0
711,0.0
712,0.0
2,1,12,21, 0,14, 0.00,60.00,WinterDesignDay
525,910.3202576051079
526,864.2028928725072
527,37618.671845215
562,1400.6194684734492
563,1381.414225758188
564,30715.6307801223
599,1113.421665189569
600,1113.421665189569
601,18723.209243062534
636,1815.3369450632488
637,1815.3369450632488
638,31144.692245380927
673,1116.9834347442932
674,1116.9834347442932
675,18730.563023800056
710,0.0
711,0.0
712,0.0
2,1,12,21, 0,15, 0.00,60.00,WinterDesignDay
525,1339.313558620794
526,1316.1062370849643
527,35674.736473762074
562,1574.6349268908443
563,1536.2429136200683
564,28817.293296923755
599,971.4497618882164
600,971.4497618882164
601,17364.794062269237
636,1581.295732702243
637,1581.295732702243
638,28859.258604620412
673,974.0703263311834
674,974.0703263311834
675,17371.063856773257
710,0.0
711,0.0
712,0.0
2,1,12,21, 0,16, 0.00,60.00,WinterDesignDay
525,910.1145994485627
526,863.947954545852
527,37621.86347389366
562,1398.6163891000679
563,1379.4282781787153
564,30710.76402410367
599,1113.1053534688508
600,1113.1053534688508
601,18722.47552286458
636,1814.8494779858217
637,1814.8494779858217
638,31143.53201765538
673,1116.5913220733125
674,1116.5913220733125
675,18729.662373624957
710,0.0
711,0.0
712,0.0
2,1,12,21, 0,17, 0.00,60.00,WinterDesignDay
525,1341.3415504873249
526,1318.2818737316748
527,35678.46180323352
562,1572.7379562100696
563,1534.3751648807377
564,28813.077240531144
599,971.1983913946202
600,971.1983913946202
601,17364.154415909816
636,1580.910316765381
637,1580.910316765381
638,28858.271173517776
673,973.7612743040626
674,973.7612743040626
675,17370.28750027534
710,0.0
711,0.0
712,0.0
2,1,12,21, 0,18, 0.00,60.00,WinterDesignDay
525,910.2525831693293
526,863.9932129748141
527,37623.966508076956
562,1397.127395705791
563,1377.9518866267572
564,30707.141487972167
599,1112.8630245887744
600,1112.8630245887744
601,18721.91663819662
636,1814.4803949106492
637,1814.4803949106492
638,31142.673314040276
673,1116.2935339508774
674,1116.2935339508774
675,18728.980928089528
710,0.0
711,0.0
712,0.0
2,1,12,21, 0,19, 0.00,60.00,WinterDesignDay
525,1157.7752108662896
526,1103.861927967144
527,37273.893542208796
562,1749.826557953049
563,1749.826557953049
564,30571.657632217335
599,1079.0196609264442
600,1003.5533123956708
601,18351.161690149605
636,1750.8611085806658
637,1630.1307188603478
638,30536.69194340023
673,1084.6321434637823
674,1014.8949773391669
675,18363.513285404933
710,0.0
711,0.0
712,0.0
2,1,12,21, 0,20, 0.00,60.00,WinterDesignDay
525,1194.408678034266
526,1117.3871917514953
527,35619.008138651676
562,1401.9795446552816
563,1401.9795446552816
564,29110.315354718274
599,1257.1679611693937
600,1213.0547978647835
601,17871.776666068625
636,2040.7698953464978
637,1979.4354239263146
638,29729.665301405836
673,1260.3547279707038
674,1220.1432638327287
675,17881.480457039936
710,0.0
711,0.0
712,0.0
2,1,12,21, 0,21, 0.00,60.00,WinterDesignDay
525,1286.9159268097537
526,1189.4505254775793
527,37843.69244798753
562,1767.4190739809317
563,1767.4190739809317
564,30615.548887573725
599,1085.0675023187243
600,996.6910144929026
601,18321.58175170935
636,1769.190394770225
637,1647.402776854794
638,30547.794423530242
673,1089.6649661229915
674,1009.0904061905309
675,18334.01917203621
710,0.0
711,0.0
712,0.0
2,1,12,21, 0,22, 0.00,60.00,WinterDesignDay
525,1155.883137087858
526,1108.2446104757234
527,35791.87249144485
562,1406.512251963158
563,1406.512251963158
564,29125.525474087215
599,1256.3323317368565
600,1212.2079924199452
601,17869.78488304789
636,2038.9928139190185
637,1978.227277267791
638,29728.932233332063
673,1260.1763101343256
674,1219.9541835820346
675,17880.998445498855
710,0.0
711,0.0
712,0.0
2,1,12,21, 0,23, 0.00,60.00,WinterDesignDay
525,1246.7686284842337
526,1152.6343702577688
527,37771.42900784337
562,1770.29821844463
563,1770.29821844463
564,30625.727563225042
599,1084.2455705860477
600,996.0339867724805
601,18320.292979411686
636,1767.7303002448325
637,1646.117766185651
638,30548.427233860235
673,1089.1521036164802
674,1008.7486239355098
675,18333.57984408653
710,0.0
711,0.0
712,0.0
2,1,12,21, 0,24, 0.00,60.00,WinterDesignDay
525,1132.804678553648
526,1086.18582770639
527,35748.744641682264
562,1408.1707161584843
563,1408.1707161584843
564,29130.394545811538
599,1255.7833413867675
600,1211.6811074328518
601,17868.600510805816
636,2038.0416623836754
637,1977.1949661357612
638,29727.397073827433
673,1259.8528928137187
674,1219.657201975016
675,17880.35920337008
710,0.0
711,0.0
712,0.0
1,TUCSON-DAVIS-MONTHAN.AFB_AZ_USA ANN CLG .4% CONDNS DB=>MWB,  33.45,-111.98,  -7.00, 337.00
2,1, 7,21, 0, 1, 0.00,60.00,SummerDesignDay
525,-4978.935417024567
526,-51007.01345752564
527,-4978.935417024567
562,-3980.0350995252033
563,-39820.88289227865
564,-3980.0350995252033
599,-2370.038859092579
600,-23872.760555737852
601,-2370.038859092579
636,-3978.338744430299
637,-39830.48428865515
638,-3978.338744430299
673,-2434.068106808214
674,-24014.09316049909
675,-2434.068106808214
710,0.0
711,0.0
712,0.0
2,1, 7,21, 0, 2, 0.00,60.00,SummerDesignDay
525,-5533.020499466339
526,-49417.49211544435
527,-5533.020499466339
562,-4500.591573807459
563,-38674.47968815518
564,-4500.591573807459
599,-2723.612032679945
600,-23228.56060761798
601,-2723.612032679945
636,-4499.557615714679
637,-38681.58352437722
638,-4499.557615714679
673,-2797.7383939209017
674,-23365.580004939853
675,-2797.7383939209017
710,0.0
711,0.0
712,0.0
2,1, 7,21, 0, 3, 0.00,60.00,SummerDesignDay
525,-4430.596706056926
526,-46000.015657983044
527,-4430.596706056926
562,-3482.096433382017
563,-35816.667796896094
564,-3482.096433382017
599,-2075.503214851244
600,-21475.63551174445
601,-2075.503214851244
636,-3477.8261788693767
637,-35820.86274648661
638,-3477.8261788693767
673,-2087.0727146484746
674,-21522.67420214995
675,-2087.0727146484746
710,0.0
711,0.0
712,0.0
2,1, 7,21, 0, 4, 0.00,60.00,SummerDesignDay
525,-5169.1250936298975
526,-46920.52255853256
527,-5169.1250936298975
562,-4105.926945723665
563,-36603.47920840056
564,-4105.926945723665
599,-2472.7611413430186
600,-21972.882987603454
601,-2472.7611413430186
636,-4102.231785169405
637,-36604.865920826494
638,-4102.231785169405
673,-2516.0879567155635
674,-22063.92663486961
675,-2516.0879567155635
710,0.0
711,0.0
712,0.0
2,1, 7,21, 0, 5, 0.00,60.00,SummerDesignDay
525,-5375.414035720882
526,-48971.44404282545
527,-5375.414035720882
562,-3993.224341379581
563,-37829.70065694497
564,-3993.224341379581
599,-2326.8325039562455
600,-22613.508991059618
601,-2326.8325039562455
636,-3985.1424296594178
637,-37828.70235213395
638,-3985.1424296594178
673,-2332.6210022173964
674,-22647.87507843564
675,-2332.6210022173964
710,0.0
711,0.0
712,0.0
2,1, 7,21, 0, 6, 0.00,60.00,SummerDesignDay
525,-5369.072272252528
526,-47056.194356156026
527,-5369.072272252528
562,-4144.712954796404
563,-36554.75471182036
564,-4144.712954796404
599,-2495.8639018601584
600,-21943.22480695105
601,-2495.8639018601584
636,-4151.976182641093
637,-36570.02952372524
638,-4151.976182641093
673,-2503.015170097114
674,-21980.926655757823
675,-2503.015170097114
710,0.0
711,0.0
712,0.0
2,1, 7,21, 0, 7, 0.00,60.00,SummerDesignDay
525,-3071.6526834989104
526,-46891.0294701232
527,-3071.6526834989104
562,-2454.703686144176
563,-36507.46495716676
564,-2454.703686144176
599,-1691.4497688065621
600,-22323.92020150988
601,-1691.4497688065621
636,-2503.5090990508293
637,-36634.096499606756
638,-2503.5090990508293
673,-1495.6394550926786
674,-21934.27518596295
675,-1495.6394550926786
710,0.0
711,0.0
712,0.0
2,1, 7,21, 0, 8, 0.00,60.00,SummerDesignDay
525,-2801.2244036481957
526,-74102.22962274916
527,-2801.2244036481957
562,-2295.6989592481277
563,-57216.53657836537
564,-2295.6989592481277
599,-1972.1632702090155
600,-35357.24288064185
601,-1972.1632702090155
636,-2330.6140550341183
637,-57316.46164407691
638,-2330.6140550341183
673,-1403.4582589445554
674,-34210.37506339001
675,-1403.4582589445554
710,0.0
711,0.0
712,0.0
2,1, 7,21, 0, 9, 0.00,60.00,SummerDesignDay
525,-2849.210735613478
526,-82616.7025971079
527,-2849.210735613478
562,-2415.2981673302997
563,-63861.89767562881
564,-2415.2981673302997
599,-2345.1987213046773
600,-39867.77663481203
601,-2345.1987213046773
636,-2453.732742098706
637,-63957.205888826255
638,-2453.732742098706
673,-1469.9584345216329
674,-38135.27204277351
675,-1469.9584345216329
710,0.0
711,0.0
712,0.0
2,1, 7,21, 0,10, 0.00,60.00,SummerDesignDay
525,-2948.1874050724596
526,-80761.28838379303
527,-2948.1874050724596
562,-2595.7910624275096
563,-62677.06692464749
564,-2595.7910624275096
599,-2541.1524884075757
600,-39310.474133487034
601,-2541.1524884075757
636,-2634.5903493832607
637,-62764.74285197311
638,-2634.5903493832607
673,-1581.8772315176186
674,-37441.13193049368
675,-1581.8772315176186
710,0.0
711,0.0
712,0.0
2,1, 7,21, 0,11, 0.00,60.00,SummerDesignDay
525,-3061.3006738079457
526,-66320.4305564004
527,-3061.3006738079457
562,-2790.068631411934
563,-51942.42932066856
564,-2790.068631411934
599,-2434.0384741242065
600,-32538.793337492116
601,-2434.0384741242065
636,-2819.967497838154
637,-52004.215546771105
638,-2819.967497838154
673,-1705.8795917971868
674,-31091.87634707981
675,-1705.8795917971868
710,0.0
711,0.0
712,0.0
2,1, 7,21, 0,12, 0.00,60.00,SummerDesignDay
525,-3169.904672167404
526,-51855.45201934461
527,-3169.904672167404
562,-2969.5722555700163
563,-41161.813154384035
564,-2969.5722555700163
599,-2270.9339108802983
600,-25614.5265705455
601,-2270.9339108802983
636,-2987.8726540245193
637,-41196.161469813545
638,-2987.8726540245193
673,-1808.7509314537658
674,-24694.79151493528
675,-1808.7509314537658
710,0.0
711,0.0
712,0.0
2,1, 7,21, 0,13, 0.00,60.00,SummerDesignDay
525,-3262.5190915058797
526,-37346.27459464281
527,-3262.5190915058797
562,-3125.1117272653114
563,-30320.032880231887
564,-3125.1117272653114
599,-2230.885584191088
600,-18914.54364182634
601,-2230.885584191088
636,-3127.9580974715245
637,-30322.41262048883
638,-3127.9580974715245
673,-1895.132557691598
674,-18252.002770311883
675,-1895.132557691598
710,0.0
711,0.0
712,0.0
2,1, 7,21, 0,14, 0.00,60.00,SummerDesignDay
525,-3328.682547059538
526,-24883.007804706005
527,-3328.682547059538
562,-3249.52694425261
563,-21006.850201681762
564,-3249.52694425261
599,-2203.9790105388547
600,-13191.220454351185
601,-2203.9790105388547
636,-3239.649671311456
637,-20981.484289140935
638,-3239.649671311456
673,-1969.0274944798311
674,-12724.65958636567
675,-1969.0274944798311
710,0.0
711,0.0
712,0.0
2,1, 7,21, 0,15, 0.00,60.00,SummerDesignDay
525,-3362.310860637526
526,-29185.70633204756
527,-3362.310860637526
562,-3303.150096859157
563,-24310.83391720983
564,-3303.150096859157
599,-2199.084309963104
600,-15074.04838415196
601,-2199.084309963104
636,-3313.2796347164635
637,-24321.13365236277
638,-3313.2796347164635
673,-2215.5516457263143
674,-15056.405400204885
675,-2215.5516457263143
710,0.0
711,0.0
712,0.0
2,1, 7,21, 0,16, 0.00,60.00,SummerDesignDay
525,-3379.609753745641
526,-43961.41185244885
527,-3379.609753745641
562,-3335.3561859116594
563,-35537.76288362618
564,-3335.3561859116594
599,-2174.9083099850636
600,-21653.823233613264
601,-2174.9083099850636
636,-3339.080703293403
637,-35543.532482788236
638,-3339.080703293403
673,-2638.727648550567
674,-22419.746096868945
675,-2638.727648550567
710,0.0
711,0.0
712,0.0
2,1, 7,21, 0,17, 0.00,60.00,SummerDesignDay
525,-3370.667197905552
526,-56570.93356567917
527,-3370.667197905552
562,-3315.337873910042
563,-45080.277896019594
564,-3315.337873910042
599,-2122.7949901128604
600,-27237.043108054582
601,-2122.7949901128604
636,-3303.6094195641076
637,-45057.883901968635
638,-3303.6094195641076
673,-2905.018374692119
674,-28566.33255863238
675,-2905.018374692119
710,0.0
711,0.0
712,0.0
2,1, 7,21, 0,18, 0.00,60.00,SummerDesignDay
525,-3313.182139074781
526,-64874.40778146173
527,-3313.182139074781
562,-3226.6507895037594
563,-51294.99710636224
564,-3226.6507895037594
599,-2039.6634252226706
600,-30865.34290793471
601,-2039.6634252226706
636,-3218.6592845067394
637,-51279.51463985318
638,-3218.6592845067394
673,-2912.204626916036
674,-32389.48840292687
675,-2912.204626916036
710,0.0
711,0.0
712,0.0
2,1, 7,21, 0,19, 0.00,60.00,SummerDesignDay
525,-3234.72343703677
526,-73115.73460189488
527,-3234.72343703677
562,-3079.6221081985636
563,-57389.94568125891
564,-3079.6221081985636
599,-1932.2749876996352
600,-34444.56278747553
601,-1932.2749876996352
636,-3119.660349101732
637,-57471.663043830216
638,-3119.660349101732
673,-2638.8977717488915
674,-35744.617812641976
675,-2638.8977717488915
710,0.0
711,0.0
712,0.0
2,1, 7,21, 0,20, 0.00,60.00,SummerDesignDay
525,-5987.0964845801345
526,-83747.396640877
527,-5987.0964845801345
562,-5465.951440474254
563,-65618.11042180535
564,-5465.951440474254
599,-3255.8690304745437
600,-39213.23406073035
601,-3255.8690304745437
636,-5561.866428461794
637,-65771.09009797046
638,-5561.866428461794
673,-3978.9157074362265
674,-40323.393043072814
675,-3978.9157074362265
710,0.0
711,0.0
712,0.0
2,1, 7,21, 0,21, 0.00,60.00,SummerDesignDay
525,-6899.632230034561
526,-69913.04672123071
527,-6899.632230034561
562,-6109.831966641866
563,-55010.34380070964
564,-6109.831966641866
599,-3721.9908703264095
600,-32998.529387352515
601,-3721.9908703264095
636,-6179.525879705299
637,-55128.839811198624
638,-6179.525879705299
673,-4232.515026694907
674,-33785.652796326176
675,-4232.515026694907
710,0.0
711,0.0
712,0.0
2,1, 7,21, 0,22, 0.00,60.00,SummerDesignDay
525,-5153.627886366363
526,-53151.17049175701
527,-5153.627886366363
562,-4384.712804046544
563,-41700.98476267777
564,-4384.712804046544
599,-2653.4115319431426
600,-25027.567431458447
601,-2653.4115319431426
636,-4409.298314205369
637,-41744.51188351633
638,-4409.298314205369
673,-2897.8293573474098
674,-25469.844719806988
675,-2897.8293573474098
710,0.0
711,0.0
712,0.0
2,1, 7,21, 0,23, 0.00,60.00,SummerDesignDay
525,-5824.671913176913
526,-51944.18514092973
527,-5824.671913176913
562,-4935.0395697860085
563,-40915.91368225819
564,-4935.0395697860085
599,-3017.6793666903664
600,-24618.747267984512
601,-3017.6793666903664
636,-4953.713225934017
637,-40952.289649340884
638,-4953.713225934017
673,-3204.0824234908378
674,-24925.216975793068
675,-3204.0824234908378
710,0.0
711,0.0
712,0.0
2,1, 7,21, 0,24, 0.00,60.00,SummerDesignDay
525,-4662.867857939399
526,-46304.29637497587
527,-4662.867857939399
562,-3784.4955994303004
563,-36242.04636028621
564,-3784.4955994303004
599,-2283.028415948475
600,-21772.684933996952
601,-2283.028415948475
636,-3789.8987385861697
637,-36259.07553317383
638,-3789.8987385861697
673,-2349.6603431895255
674,-21885.758404261625
675,-2349.6603431895255
710,0.0
711,0.0
712,0.0
1,Phoenix Sky Harbor Intl Ap AZ USA TMY3 WMO#=722780,  33.45,-111.98,  -7.00, 337.00
2,1, 1, 1, 0, 1, 0.00,60.00,Holiday
525,0.0
526,-17491.2337975889
527,18932.567405807302
562,0.0
563,-12920.70174200025
564,14198.843162214449
599,0.0
600,-6444.008300747634
601,9653.173029640524
636,0.0
637,-9592.592712583852
638,16603.80421639101
673,0.0
674,-6527.783161059376
675,9550.9293775239
710,0.0
711,0.0
712,0.0
2,1, 1, 1, 0, 2, 0.00,60.00,Holiday
525,0.0
526,-21345.953121482886
527,24967.23215841001
562,0.0
563,-16629.954840864466
564,19115.60114728849
599,0.0
600,-8322.04077381996
601,12789.388828738714
636,0.0
637,-12568.46724901934
638,22187.47293231946
673,0.0
674,-8420.631664752205
675,12686.929463495011
710,0.0
711,0.0
712,0.0
2,1, 1, 1, 0, 3, 0.00,60.00,Holiday
525,0.0
526,-14086.09727215484
527,17229.847979965663
562,0.0
563,-10892.434111100521
564,13459.85770041348
599,0.0
600,-5485.899504992677
601,8897.848795594464
636,0.0
637,-8477.562858782829
638,15671.187654144916
673,0.0
674,-5549.976427358956
675,8851.649104350941
710,0.0
711,0.0
712,0.0
2,1, 1, 1, 0, 4, 0.00,60.00,Holiday
525,0.0
526,-13809.482721959945
527,17504.789813592306
562,0.0
563,-10616.791073591798
564,13721.261354477261
599,0.0
600,-5364.757604973828
601,8945.634016675614
636,0.0
637,-8324.248615185157
638,15702.761503958287
673,0.0
674,-5423.193870296316
675,8911.88196488589
710,0.0
711,0.0
712,0.0
2,1, 1, 1, 0, 5, 0.00,60.00,Holiday
525,0.0
526,-13578.896290081495
527,17766.591594935464
562,0.0
563,-10352.850117744563
564,13938.810027097652
599,0.0
600,-5229.405360299502
601,8940.802505079104
636,0.0
637,-8074.342167432227
638,15508.790946403062
673,0.0
674,-5283.937384142998
675,8917.571459122466
710,0.0
711,0.0
712,0.0
2,1, 1, 1, 0, 6, 0.00,60.00,Holiday
525,0.0
526,-13363.288033704926
527,18015.661183285858
562,0.0
563,-9922.461902661727
564,14272.355556023562
599,0.0
600,-5118.220109487733
601,9250.523277059778
636,0.0
637,-8056.817538858905
638,16206.173775226145
673,0.0
674,-5148.991614307652
675,9198.344398759544
710,0.0
711,0.0
712,0.0
2,1, 1, 1, 0, 7, 0.00,60.00,Holiday
525,0.0
526,-13160.599284033551
527,18248.539616859678
562,0.0
563,-9392.23798679268
564,14684.709903822897
599,0.0
600,-5086.901980750531
601,9878.682309127154
636,0.0
637,-8011.2116322391375
638,17138.636213014528
673,0.0
674,-5121.676233009985
675,9845.106177224852
710,0.0
711,0.0
712,0.0
2,1, 1, 1, 0, 8, 0.00,60.00,Holiday
525,0.0
526,-12978.921837121301
527,18476.665154456186
562,0.0
563,-9205.845792395114
564,15222.257456932615
599,0.0
600,-5083.4725130180395
601,10150.134834787432
636,0.0
637,-7879.758061423087
638,17585.40572197024
673,0.0
674,-4998.230969384069
675,10121.255876188801
710,0.0
711,0.0
712,0.0
2,1, 1, 1, 0, 9, 0.00,60.00,Holiday
525,0.0
526,-28284.360548686644
527,40736.41798131872
562,0.0
563,-21686.227041059028
564,31398.517657473527
599,0.0
600,-12513.780884416992
601,19463.230207379158
636,0.0
637,-16835.797781073717
638,36888.8982139755
673,0.0
674,-10648.330318656204
675,21363.297961703338
710,0.0
711,0.0
712,0.0
2,1, 1, 1, 0,10, 0.00,60.00,Holiday
525,0.0
526,-54390.86790171917
527,75043.36243086632
562,0.0
563,-47423.92414900101
564,52090.43787362155
599,0.0
600,-26865.52964738627
601,32400.93846373816
636,0.0
637,-31917.989959172675
638,66548.94100684025
673,0.0
674,-20092.551121604294
675,38733.8136142041
710,0.0
711,0.0
712,0.0
2,1, 1, 1, 0,11, 0.00,60.00,Holiday
525,0.0
526,-59886.2260976423
527,71845.29805648752
562,0.0
563,-54405.48056238441
564,45266.83188440994
599,0.0
600,-28189.120719277675
601,30823.691233395653
636,0.0
637,-32783.69213921907
638,65178.57501330063
673,0.0
674,-20564.48737395726
675,37943.238016915726
710,0.0
711,0.0
712,0.0
2,1, 1, 1, 0,12, 0.00,60.00,Holiday
525,0.0
526,-49669.97997245407
527,55507.45214066241
562,0.0
563,-49689.39456699125
564,30414.756676020257
599,0.0
600,-22491.545308192446
601,24522.40883317906
636,0.0
637,-27492.219330667296
638,50344.7025156428
673,0.0
674,-17250.145942993975
675,28996.352746298868
710,0.0
711,0.0
712,0.0
2,1, 1, 1, 0,13, 0.00,60.00,Holiday
525,0.0
526,-40543.23834022671
527,42223.37149424102
562,0.0
563,-44362.74969755344
564,19488.167633191566
599,0.0
600,-17904.16682876801
601,18768.09798484742
636,0.0
637,-22925.55762451814
638,37743.870765948064
673,0.0
674,-14703.859106742528
675,21838.041200417665
710,0.0
711,0.0
712,0.0
2,1, 1, 1, 0,14, 0.00,60.00,Holiday
525,0.0
526,-24896.131311343994
527,24233.552412687033
562,0.0
563,-29031.08074196609
564,9759.821707659996
599,0.0
600,-10630.522845491787
601,10677.226021746605
636,0.0
637,-13862.429667357375
638,20969.689864861026
673,0.0
674,-9080.590163487519
675,12165.66508662441
710,0.0
711,0.0
712,0.0
2,1, 1, 1, 0,15, 0.00,60.00,Holiday
525,0.0
526,-25790.629290410812
527,23369.70925093527
562,0.0
563,-29668.611225392244
564,8725.312960998594
599,0.0
600,-10768.712865103427
601,10395.061681184261
636,0.0
637,-14583.962983373858
638,20312.36884070489
673,0.0
674,-10378.576521753477
675,11249.521783012076
710,0.0
711,0.0
712,0.0
2,1, 1, 1, 0,16, 0.00,60.00,Holiday
525,0.0
526,-54170.354336273485
527,47298.51194113015
562,0.0
563,-57124.40351688833
564,19294.384363452395
599,0.0
600,-22880.533801096753
601,21698.91580673076
636,0.0
637,-32088.193409808835
638,42578.169125142216
673,0.0
674,-23290.206275223813
675,22055.736488908
710,0.0
711,0.0
712,0.0
2,1, 1, 1, 0,17, 0.00,60.00,Holiday
525,0.0
526,-40557.300527641455
527,34724.289150887234
562,0.0
563,-40934.1756650681
564,15375.847698913722
599,0.0
600,-16806.702560389127
601,16043.596399415685
636,0.0
637,-24001.868154130567
638,30906.641501888837
673,0.0
674,-18623.447465923935
675,15209.517348443907
710,0.0
711,0.0
712,0.0
2,1, 1, 1, 0,18, 0.00,60.00,Holiday
525,0.0
526,-56825.394483736956
527,48327.02266800455
562,0.0
563,-53049.574205746554
564,25035.463466939433
599,0.0
600,-23290.296120825584
601,23200.61967101596
636,0.0
637,-34010.88352149768
638,44211.18664049109
673,0.0
674,-25615.130191974236
675,21611.15579044574
710,0.0
711,0.0
712,0.0
2,1, 1, 1, 0,19, 0.00,60.00,Holiday
525,0.0
526,-52271.536311653625
527,45315.34352611933
562,0.0
563,-45698.94281368075
564,25968.51825481433
599,0.0
600,-21025.228619639485
601,22129.402106921054
636,0.0
637,-31022.09828904852
638,41670.657164937445
673,0.0
674,-22644.37786906883
675,21061.492542889013
710,0.0
711,0.0
712,0.0
2,1, 1, 1, 0,20, 0.00,60.00,Holiday
525,0.0
526,-31715.098782725632
527,28296.3238693286
562,0.0
563,-25860.753670952512
564,17378.829081782304
599,0.0
600,-12313.638471430817
601,13835.885326086469
636,0.0
637,-18388.530539033385
638,25808.27502125783
673,0.0
674,-13064.514393526604
675,13368.921864015329
710,0.0
711,0.0
712,0.0
2,1, 1, 1, 0,21, 0.00,60.00,Holiday
525,0.0
526,-17727.209222081354
527,16308.856682652078
562,0.0
563,-13418.77538811815
564,10316.580713247813
599,0.0
600,-6509.942260457804
601,7774.583881024105
636,0.0
637,-9811.291810140261
638,14334.488453955171
673,0.0
674,-6768.5579919328275
675,7534.610440756113
710,0.0
711,0.0
712,0.0
2,1, 1, 1, 0,22, 0.00,60.00,Holiday
525,0.0
526,-17561.946269265594
527,16563.51815703243
562,0.0
563,-13108.792019159591
564,11133.715163899707
599,0.0
600,-6265.651011441748
601,7896.553646412292
636,0.0
637,-9564.527336211651
638,14512.460307196541
673,0.0
674,-6535.770338156214
675,7809.49662267301
710,0.0
711,0.0
712,0.0
2,1, 1, 1, 0,23, 0.00,60.00,Holiday
525,0.0
526,-17390.905995522044
527,16783.026097012913
562,0.0
563,-12526.82769112921
564,11935.237013562648
599,0.0
600,-6017.475577371464
601,8237.00608075634
636,0.0
637,-8837.036736447966
638,14282.613761904251
673,0.0
674,-6062.824757314964
675,7976.206486118107
710,0.0
711,0.0
712,0.0