Program Version,EnergyPlus, Version 8.6.0-198c6a3cff, YMD=2019.03.03 18:42
1,5,Environment Title[],Latitude[deg],Longitude[deg],Time Zone[],Elevation[m]
2,6,Day of Simulation[],Month[],Day of Month[],DST Indicator[1=yes 0=no],Hour[],StartMinute[],EndMinute[],DayType
3,3,Cumulative Day of Simulation[],Month[],Day of Month[],DST Indicator[1=yes 0=no],DayType  ! When Daily Report Variables Requested
4,2,Cumulative Days of Simulation[],Month[]  ! When Monthly Report Variables Requested
5,1,Cumulative Days of Simulation[] ! When Run Period Report Variables Requested
525,1,CORE_ZN,Zone Predicted Sensible Load to Setpoint Heat Transfer Rate [W] !Hourly
526,1,CORE_ZN,Zone Predicted Sensible Load to Heating Setpoint Heat Transfer Rate [W] !Hourly
527,1,CORE_ZN,Zone Predicted Sensible Load to Cooling Setpoint Heat Transfer Rate [W] !Hourly
562,1,PERIMETER_ZN_1,Zone Predicted Sensible Load to Setpoint Heat Transfer Rate [W] !Hourly
563,1,PERIMETER_ZN_1,Zone Predicted Sensible Load to Heating Setpoint Heat Transfer Rate [W] !Hourly
564,1,PERIMETER_ZN_1,Zone Predicted Sensible Load to Cooling Setpoint Heat Transfer Rate [W] !Hourly
599,1,PERIMETER_ZN_2,Zone Predicted Sensible Load to Setpoint Heat Transfer Rate [W] !Hourly
600,1,PERIMETER_ZN_2,Zone Predicted Sensible Load to Heating Setpoint Heat Transfer Rate [W] !Hourly
601,1,PERIMETER_ZN_2,Zone Predicted Sensible Load to Cooling Setpoint Heat Transfer Rate [W] !Hourly
636,1,PERIMETER_ZN_3,Zone Predicted Sensible Load to Setpoint Heat Transfer Rate [W] !Hourly
637,1,PERIMETER_ZN_3,Zone Predicted Sensible Load to Heating Setpoint Heat Transfer Rate [W] !Hourly
638,1,PERIMETER_ZN_3,Zone Predicted Sensible Load to Cooling Setpoint Heat Transfer Rate [W] !Hourly
673,1,PERIMETER_ZN_4,Zone Predicted Sensible Load to Setpoint Heat Transfer Rate [W] !Hourly
674,1,PERIMETER_ZN_4,Zone Predicted Sensible Load to Heating Setpoint Heat Transfer Rate [W] !Hourly
675,1,PERIMETER_ZN_4,Zone Predicted Sensible Load to Cooling Setpoint Heat Transfer Rate [W] !Hourly
710,1,ATTIC,Zone Predicted Sensible Load to Setpoint Heat Transfer Rate [W] !Hourly
711,1,ATTIC,Zone Predicted Sensible Load to Heating Setpoint Heat Transfer Rate [W] !Hourly
712,1,ATTIC,Zone Predicted Sensible Load to Cooling Setpoint Heat Transfer Rate [W] !Hourly
End of Data Dictionary
1,DENVER-AURORA-BUCKLEY.AFB_CO_USA ANN HTG 99.6% CONDNS DB,  40.13,-105.24,  -7.00,1689.00
2,1,12,21, 0, 1, 0.00,60.00,WinterDesignDay
525,1569.2742827351783
526,1569.2742827351783
527,37706.57644786701
562,2439.4365210581022
563,2439.4365210581022
564,31390.039521199138
599,1693.4729468789835
600,1693.4729468789835
601,19108.94333961728
636,2769.8608437962516
637,2769.8608437962516
638,31807.579153933737
673,1697.9704494079895
674,1697.9704494079895
675,19112.5244841196
710,0.0
711,0.0
712,0.0
2,1,12,21, 0, 2, 0.00,60.00,WinterDesignDay
525,1611.5307717144851
526,1611.5307717144851
527,35897.45163592813
562,2884.797072836467
563,2884.797072836467
564,30366.35181136549
599,1858.7133774651586
600,1858.7133774651586
601,18436.366449407145
636,3093.073774882339
637,3093.073774882339
638,30726.41008725968
673,1860.9696106995063
674,1860.9696106995063
675,18438.823471122465
710,0.0
711,0.0
712,0.0
2,1,12,21, 0, 3, 0.00,60.00,WinterDesignDay
525,1212.5001866273296
526,1212.5001866273296
527,33200.13358856181
562,2221.9802235900293
563,2221.9802235900293
564,27843.72425517045
599,1453.459135900984
600,1453.459135900984
601,16935.449187352904
636,2405.1091319755233
637,2405.1091319755233
638,28223.12138929941
673,1459.0075134281253
674,1459.0075134281253
675,16941.061166115946
710,0.0
711,0.0
712,0.0
2,1,12,21, 0, 4, 0.00,60.00,WinterDesignDay
525,1613.395156851514
526,1613.395156851514
527,35915.892292124394
562,2897.458448555335
563,2897.458448555335
564,30390.51168507397
599,1871.8767030141055
600,1871.8767030141055
601,18461.41168548298
636,3122.1063873491585
637,3122.1063873491585
638,30780.89311814765
673,1874.0047518113395
674,1874.0047518113395
675,18463.613314243335
710,0.0
711,0.0
712,0.0
2,1,12,21, 0, 5, 0.00,60.00,WinterDesignDay
525,1210.2279299193967
526,1210.2279299193967
527,33210.82191377453
562,2226.5664696781023
563,2226.5664696781023
564,27852.820853039488
599,1458.074284671203
600,1458.074284671203
601,16944.71872976046
636,2416.4890910409167
637,2416.4890910409167
638,28244.344041519525
673,1463.6024111364616
674,1463.6024111364616
675,16950.26417939791
710,0.0
711,0.0
712,0.0
2,1,12,21, 0, 6, 0.00,60.00,WinterDesignDay
525,1607.6855460905608
526,1607.6855460905608
527,35917.34304519975
562,2900.8333566790534
563,2900.8333566790534
564,30396.598618632805
599,1874.9852047391612
600,1874.9852047391612
601,18467.061227849972
636,3128.4906243985497
637,3128.4906243985497
638,30792.251922204294
673,1877.0980768656348
674,1877.0980768656348
675,18469.230949037006
710,0.0
711,0.0
712,0.0
2,1,12,21, 0, 7, 0.00,60.00,WinterDesignDay
525,1205.3814451936216
526,1205.3814451936216
527,33215.13186526253
562,2228.1757686131273
563,2228.1757686131273
564,27855.594187742347
599,1459.516992371274
600,1459.516992371274
601,16947.29482350046
636,2419.7851411315028
637,2419.7851411315028
638,28249.830739799963
673,1465.044989795575
674,1465.044989795575
675,16952.8338092145
710,0.0
711,0.0
712,0.0
2,1,12,21, 0, 8, 0.00,60.00,WinterDesignDay
525,1615.0926986832503
526,1615.0926986832503
527,35922.66082140938
562,2544.7308561828254
563,2544.7308561828254
564,29889.865915966326
599,1627.042225924896
600,1627.042225924896
601,18062.404762076327
636,2763.6197642235834
637,2763.6197642235834
638,30235.67240499549
673,1628.786876631247
674,1628.786876631247
675,18064.2085639203
710,0.0
711,0.0
712,0.0
2,1,12,21, 0, 9, 0.00,60.00,WinterDesignDay
525,1224.8435173914745
526,1224.8435173914745
527,33217.0431386505
562,1914.9952260047214
563,1914.9952260047214
564,27289.301579062405
599,1223.9479940053054
600,1223.9479940053054
601,16418.123381895613
636,2084.74466335653
637,2084.74466335653
638,27572.399617749248
673,1228.65336937112
674,1228.65336937112
675,16422.783380260455
710,0.0
711,0.0
712,0.0
2,1,12,21, 0,10, 0.00,60.00,WinterDesignDay
525,1639.864195365282
526,1639.864195365282
527,35936.555722751094
562,2531.1228777970446
563,2531.1228777970446
564,29868.194614638793
599,1616.8381446217888
600,1616.8381446217888
601,18039.219534724038
636,2750.0374329331135
637,2750.0374329331135
638,30210.88808996492
673,1618.5933247926384
674,1618.5933247926384
675,18040.986414493473
710,0.0
711,0.0
712,0.0
2,1,12,21, 0,11, 0.00,60.00,WinterDesignDay
525,1233.666436353666
526,1233.666436353666
527,33209.75843187814
562,1911.4666673842069
563,1911.4666673842069
564,27282.47633819906
599,1220.921049457145
600,1220.921049457145
601,16408.779203077967
636,2081.2597378187925
637,2081.2597378187925
638,27564.488233871565
673,1225.6031209480932
674,1225.6031209480932
675,16413.39639619226
710,0.0
711,0.0
712,0.0
2,1,12,21, 0,12, 0.00,60.00,WinterDesignDay
525,1657.3611852420547
526,1657.3611852420547
527,35947.407195769876
562,2528.5604964605936
563,2528.5604964605936
564,29863.272721540314
599,1615.4107962039752
600,1615.4107962039752
601,18036.505931609176
636,2747.973501137453
637,2747.973501137453
638,30207.12819799095
673,1617.1575929868025
674,1617.1575929868025
675,18038.26378152485
710,0.0
711,0.0
712,0.0
2,1,12,21, 0,13, 0.00,60.00,WinterDesignDay
525,1255.4656179979072
526,1255.4656179979072
527,33210.8413241042
562,1910.1960445799687
563,1910.1960445799687
564,27279.470734766906
599,1220.5043867913175
600,1220.5043867913175
601,16408.660709182648
636,2080.467882448972
637,2080.467882448972
638,27563.20007840068
673,1225.1830416626492
674,1225.1830416626492
675,16413.28730099567
710,0.0
711,0.0
712,0.0
2,1,12,21, 0,14, 0.00,60.00,WinterDesignDay
525,1676.72120008186
526,1676.72120008186
527,35961.13042129702
562,2527.420032998912
563,2527.420032998912
564,29860.903184649138
599,1615.0087735418308
600,1615.0087735418308
601,18036.273007660773
636,2747.2817901480134
637,2747.2817901480134
638,30206.042907453364
673,1616.7524777551978
674,1616.7524777551978
675,18038.032611540755
710,0.0
711,0.0
712,0.0
2,1,12,21, 0,15, 0.00,60.00,WinterDesignDay
525,1245.155075843105
526,1245.155075843105
527,33202.45644820334
562,1909.4513762540635
563,1909.4513762540635
564,27277.515714396275
599,1220.4492272071473
600,1220.4492272071473
601,16409.50314286823
636,2080.1395680882847
637,2080.1395680882847
638,27562.87732628766
673,1225.1271094314918
674,1225.1271094314918
675,16414.141568400006
710,0.0
711,0.0
712,0.0
2,1,12,21, 0,16, 0.00,60.00,WinterDesignDay
525,1548.166434997215
526,1548.166434997215
527,33933.95080045937
562,2365.669766433513
563,2365.669766433513
564,28257.41813075326
599,1513.0963961008467
600,1513.0963961008467
601,17079.673179690202
636,2572.731956988199
637,2572.731956988199
638,28590.04585618844
673,1514.8305072890641
674,1514.8305072890641
675,17081.42691496354
710,0.0
711,0.0
712,0.0
2,1,12,21, 0,17, 0.00,60.00,WinterDesignDay
525,1275.7910467207723
526,1206.363061396979
527,33204.97977397979
562,2059.3127667764516
563,2059.3127667764516
564,27432.048036841792
599,1316.0893289623461
600,1316.0893289623461
601,16537.57534060412
636,2237.881147677686
637,2237.881147677686
638,27664.001419599474
673,1316.4187047340563
674,1316.4187047340563
675,16537.959908557114
710,0.0
711,0.0
712,0.0
2,1,12,21, 0,18, 0.00,60.00,WinterDesignDay
525,1563.6891624177533
526,1494.8686551612918
527,33920.45632472222
562,2514.197086663098
563,2514.197086663098
564,28409.797643816866
599,1607.8296907668237
600,1607.8296907668237
601,17206.12943328456
636,2729.5563597458377
637,2729.5563597458377
638,28690.07326225277
673,1605.2121726910973
674,1605.2121726910973
675,17203.62055915137
710,0.0
711,0.0
712,0.0
2,1,12,21, 0,19, 0.00,60.00,WinterDesignDay
525,1234.4199321697163
526,1234.4199321697163
527,33201.52979818715
562,2196.9815179242773
563,2196.9815179242773
564,27708.638735234807
599,1426.0792026982947
600,1426.0792026982947
601,16774.546211838253
636,2377.7722130096595
637,2377.7722130096595
638,28049.134204950446
673,1431.2684153179364
674,1431.2684153179364
675,16779.672833663757
710,0.0
711,0.0
712,0.0
2,1,12,21, 0,20, 0.00,60.00,WinterDesignDay
525,1638.0420420116636
526,1638.0420420116636
527,35937.005357501715
562,2890.8864116962136
563,2890.8864116962136
564,30378.159297459617
599,1869.6819727464808
600,1869.6819727464808
601,18457.10833885257
636,3121.4151966390177
637,3121.4151966390177
638,30779.193898441754
673,1871.7500774143653
674,1871.7500774143653
675,18459.20162877595
710,0.0
711,0.0
712,0.0
2,1,12,21, 0,21, 0.00,60.00,WinterDesignDay
525,1232.4329352068269
526,1232.4329352068269
527,33217.00572563033
562,2224.0210869333314
563,2224.0210869333314
564,27848.026736860047
599,1457.5024410972408
600,1457.5024410972408
601,16943.40003756092
636,2416.981211908369
637,2416.981211908369
638,28244.716967295186
673,1463.0020633992565
674,1463.0020633992565
675,16948.895662703842
710,0.0
711,0.0
712,0.0
2,1,12,21, 0,22, 0.00,60.00,WinterDesignDay
525,1631.5889787344304
526,1631.5889787344304
527,35939.13610331842
562,2898.7397239983598
563,2898.7397239983598
564,30392.95586566241
599,1874.8304901025488
600,1874.8304901025488
601,18466.735667354256
636,3129.63538543128
637,3129.63538543128
638,30794.105495243784
673,1876.9187558981428
674,1876.9187558981428
675,18468.862718201683
710,0.0
711,0.0
712,0.0
2,1,12,21, 0,23, 0.00,60.00,WinterDesignDay
525,1218.4346070483537
526,1218.4346070483537
527,33218.691194731146
562,2227.1079474979047
563,2227.1079474979047
564,27853.896732882025
599,1459.5456299021344
600,1459.5456299021344
601,16947.300013565273
636,2420.769313382109
637,2420.769313382109
638,28251.289170847635
673,1465.0594198260912
674,1465.0594198260912
675,16952.815544537694
710,0.0
711,0.0
712,0.0
2,1,12,21, 0,24, 0.00,60.00,WinterDesignDay
525,1617.5801608347747
526,1617.5801608347747
527,35930.99463715291
562,2901.299874235761
563,2901.299874235761
564,30397.461650484667
599,1876.4608315970163
600,1876.4608315970163
601,18469.62285788372
636,3132.3101494417147
637,3132.3101494417147
638,30798.71104146411
673,1878.5557268866505
674,1878.5557268866505
675,18471.760365623642
710,0.0
711,0.0
712,0.0
1,DENVER-AURORA-BUCKLEY.AFB_CO_USA ANN CLG .4% CONDNS DB=>MWB,  40.13,-105.24,  -7.00,1689.00
2,1, 7,21, 0, 1, 0.00,60.00,SummerDesignDay
525,-4782.7692385469045
526,-46243.6033076169
527,-4782.7692385469045
562,-3204.314338264843
563,-35325.368864342
564,-3204.314338264843
599,-1821.5927827955675
600,-21079.880636968726
601,-1821.5927827955675
636,-3182.5081315589446
637,-35250.02404291841
638,-3182.5081315589446
673,-1938.353173554673
674,-21354.53012975371
675,-1938.353173554673
710,0.0
711,0.0
712,0.0
2,1, 7,21, 0, 2, 0.00,60.00,SummerDesignDay
525,-4842.81660715043
526,-42507.37857153231
527,-4842.81660715043
562,-3413.2729266842175
563,-32595.823693144368
564,-3413.2729266842175
599,-2001.3931551053975
600,-19507.67540802757
601,-2001.3931551053975
636,-3372.1041115401918
637,-32499.86856587972
638,-3372.1041115401918
673,-2114.060885280461
674,-19753.617991343635
675,-2114.060885280461
710,0.0
711,0.0
712,0.0
2,1, 7,21, 0, 3, 0.00,60.00,SummerDesignDay
525,-3492.852674382158
526,-35561.18666507694
527,-3492.852674382158
562,-2422.0365874128724
563,-27288.90983703727
564,-2422.0365874128724
599,-1424.6893832342528
600,-16359.89415330936
601,-1424.6893832342528
636,-2399.396115142555
637,-27229.384028024495
638,-2399.396115142555
673,-1498.0161726880099
674,-16509.828935070014
675,-1498.0161726880099
710,0.0
711,0.0
712,0.0
2,1, 7,21, 0, 4, 0.00,60.00,SummerDesignDay
525,-4171.015849961856
526,-38041.17994553425
527,-4171.015849961856
562,-2959.2800571863504
563,-29174.6993859093
564,-2959.2800571863504
599,-1759.9480014837445
600,-17492.891518098662
601,-1759.9480014837445
636,-2914.662400041885
637,-29076.982150480228
638,-2914.662400041885
673,-1838.4111994693556
674,-17671.17686692891
675,-1838.4111994693556
710,0.0
711,0.0
712,0.0
2,1, 7,21, 0, 5, 0.00,60.00,SummerDesignDay
525,-3458.057336265873
526,-35496.023646698064
527,-3458.057336265873
562,-2333.96877183763
563,-27121.598388437633
564,-2333.96877183763
599,-1375.8306557796775
600,-16257.700744421576
601,-1375.8306557796775
636,-2312.046340969037
637,-27065.188908643584
638,-2312.046340969037
673,-1424.2243433175834
674,-16362.221966080877
675,-1424.2243433175834
710,0.0
711,0.0
712,0.0
2,1, 7,21, 0, 6, 0.00,60.00,SummerDesignDay
525,-4577.730936574826
526,-44060.11479718313
527,-4577.730936574826
562,-3245.26307367467
563,-33713.06160055203
564,-3245.26307367467
599,-2370.4551597912955
600,-20922.412802986906
601,-2370.4551597912955
636,-3305.0730897663166
637,-33832.22997506896
638,-3305.0730897663166
673,-1980.6983483716667
674,-20300.90274429946
675,-1980.6983483716667
710,0.0
711,0.0
712,0.0
2,1, 7,21, 0, 7, 0.00,60.00,SummerDesignDay
525,-2860.536163984747
526,-55632.51280898485
527,-2860.536163984747
562,-2048.770667284934
563,-42670.39583875349
564,-2048.770667284934
599,-2025.0911816226017
600,-27189.36972389482
601,-2025.0911816226017
636,-2069.546198843255
637,-42746.91275557141
638,-2069.546198843255
673,-1215.7181127124034
674,-25521.18029105867
675,-1215.7181127124034
710,0.0
711,0.0
712,0.0
2,1, 7,21, 0, 8, 0.00,60.00,SummerDesignDay
525,-2496.5279211552024
526,-72088.68012539785
527,-2496.5279211552024
562,-1965.8615447906866
563,-55463.562336202864
564,-1965.8615447906866
599,-2425.2646199647897
600,-35775.48794307275
601,-2425.2646199647897
636,-1948.4033848310398
637,-55434.46011742394
638,-1948.4033848310398
673,-1186.3247512664375
674,-33108.03886228846
675,-1186.3247512664375
710,0.0
711,0.0
712,0.0
2,1, 7,21, 0, 9, 0.00,60.00,SummerDesignDay
525,-2530.406952038799
526,-75946.1942559423
527,-2530.406952038799
562,-2073.0889100137597
563,-58609.13393295265
564,-2073.0889100137597
599,-2661.9569769527748
600,-37925.52084938264
601,-2661.9569769527748
636,-2072.0227793134486
637,-58605.83723879103
638,-2072.0227793134486
673,-1242.4769080149724
674,-34955.8434607594
675,-1242.4769080149724
710,0.0
711,0.0
712,0.0
2,1, 7,21, 0,10, 0.00,60.00,SummerDesignDay
525,-2603.0257078398577
526,-68646.4037624133
527,-2603.0257078398577
562,-2217.5589111574623
563,-53299.14667235661
564,-2217.5589111574623
599,-2518.8890790879145
600,-34355.43963087686
601,-2518.8890790879145
636,-2223.2583838992496
637,-53310.286843859
638,-2223.2583838992496
673,-1327.329157189055
674,-31800.542025729443
675,-1327.329157189055
710,0.0
711,0.0
712,0.0
2,1, 7,21, 0,11, 0.00,60.00,SummerDesignDay
525,-2680.967530096999
526,-55714.117479588844
527,-2680.967530096999
562,-2410.025317505533
563,-43814.78845465737
564,-2410.025317505533
599,-2110.220016506273
600,-27708.214901145577
601,-2110.220016506273
636,-2355.4350710833346
637,-43670.20887678021
638,-2355.4350710833346
673,-1415.7834822634334
674,-26111.403339156514
675,-1415.7834822634334
710,0.0
711,0.0
712,0.0
2,1, 7,21, 0,12, 0.00,60.00,SummerDesignDay
525,-2750.2113597809894
526,-42753.42422812861
527,-2750.2113597809894
562,-2628.8290125243807
563,-34369.27050840208
564,-2628.8290125243807
599,-1895.3825294862108
600,-21317.59360176315
601,-1895.3825294862108
636,-2472.3542524482623
637,-33977.10364218215
638,-2472.3542524482623
673,-1497.3493120473668
674,-20394.066593913656
675,-1497.3493120473668
710,0.0
711,0.0
712,0.0
2,1, 7,21, 0,13, 0.00,60.00,SummerDesignDay
525,-2808.9207135735146
526,-29760.860591678607
527,-2808.9207135735146
562,-2791.050909509499
563,-24766.352778349883
564,-2791.050909509499
599,-1845.2530854126173
600,-15281.430736569991
601,-1845.2530854126173
636,-2571.927559936093
637,-24234.004685283206
638,-2571.927559936093
673,-1550.3940261270611
674,-14609.414076877207
675,-1550.3940261270611
710,0.0
711,0.0
712,0.0
2,1, 7,21, 0,14, 0.00,60.00,SummerDesignDay
525,-2854.5797271518386
526,-22366.901232002125
527,-2854.5797271518386
562,-2853.9206851023664
563,-19204.947097958968
564,-2853.9206851023664
599,-1820.9996704053374
600,-11845.028053172135
601,-1820.9996704053374
636,-2648.1219459743893
637,-18710.354126946022
638,-2648.1219459743893
673,-1677.3147173823425
674,-11492.005333156389
675,-1677.3147173823425
710,0.0
711,0.0
712,0.0
2,1, 7,21, 0,15, 0.00,60.00,SummerDesignDay
525,-2889.1795493260047
526,-29981.687477532138
527,-2889.1795493260047
562,-2848.712586384457
563,-24885.87925133006
564,-2848.712586384457
599,-1798.0621586169746
600,-15178.402554083224
601,-1798.0621586169746
636,-2695.1160746026667
637,-24525.964384158684
638,-2695.1160746026667
673,-2162.2419975087887
674,-15825.44913883233
675,-2162.2419975087887
710,0.0
711,0.0
712,0.0
2,1, 7,21, 0,16, 0.00,60.00,SummerDesignDay
525,-2903.9161841420973
526,-41312.014710401316
527,-2903.9161841420973
562,-2815.9786626741134
563,-33371.57468807932
564,-2815.9786626741134
599,-1759.3135377971078
600,-20171.774207078794
601,-1759.3135377971078
636,-2681.5985265562954
637,-33070.97206736031
638,-2681.5985265562954
673,-2718.2649253190925
674,-21913.259647080617
675,-2718.2649253190925
710,0.0
711,0.0
712,0.0
2,1, 7,21, 0,17, 0.00,60.00,SummerDesignDay
525,-2885.5034551405274
526,-54447.480552562185
527,-2885.5034551405274
562,-2748.70322155274
563,-43209.33748478162
564,-2748.70322155274
599,-1710.6658702779202
600,-25988.307054557114
601,-1710.6658702779202
636,-2628.5492605401846
637,-42940.916250677685
638,-2628.5492605401846
673,-2987.157016824298
674,-28319.406521368062
675,-2987.157016824298
710,0.0
711,0.0
712,0.0
2,1, 7,21, 0,18, 0.00,60.00,SummerDesignDay
525,-2854.3388902485526
526,-63765.762871831255
527,-2854.3388902485526
562,-2663.0072479620826
563,-50149.065335950036
564,-2663.0072479620826
599,-1626.1206714941982
600,-30035.793106370253
601,-1626.1206714941982
636,-2566.5145479600033
637,-49931.751765229536
638,-2566.5145479600033
673,-2930.0968185860133
674,-32488.072722240147
675,-2930.0968185860133
710,0.0
711,0.0
712,0.0
2,1, 7,21, 0,19, 0.00,60.00,SummerDesignDay
525,-2802.9977576576275
526,-67390.00384599157
527,-2802.9977576576275
562,-2516.022972130279
563,-52666.00469853738
564,-2516.022972130279
599,-1529.783300172234
600,-31503.765688220534
601,-1529.783300172234
636,-2506.9190180922556
637,-52664.51156195485
638,-2506.9190180922556
673,-2525.5316723704073
674,-33521.19394149501
675,-2525.5316723704073
710,0.0
711,0.0
712,0.0
2,1, 7,21, 0,20, 0.00,60.00,SummerDesignDay
525,-5123.278262692801
526,-73204.27102971157
527,-5123.278262692801
562,-4127.041409063763
563,-56723.465742565175
564,-4127.041409063763
599,-2404.449267666226
600,-33831.31938073561
601,-2404.449267666226
636,-4160.750535305358
637,-56760.77162938239
638,-4160.750535305358
673,-3008.4505562391
674,-34987.44599217701
675,-3008.4505562391
710,0.0
711,0.0
712,0.0
2,1, 7,21, 0,21, 0.00,60.00,SummerDesignDay
525,-5354.8989399831435
526,-58337.601440126055
527,-5354.8989399831435
562,-4267.421608220152
563,-45335.056688688695
564,-4267.421608220152
599,-2537.856228972298
600,-27128.056252046616
601,-2537.856228972298
636,-4249.515145474244
637,-45301.3541117438
638,-4249.515145474244
673,-3065.503137448095
674,-28017.270769753086
675,-3065.503137448095
710,0.0
711,0.0
712,0.0
2,1, 7,21, 0,22, 0.00,60.00,SummerDesignDay
525,-4479.765224970193
526,-47997.83609686889
527,-4479.765224970193
562,-3400.3602770550956
563,-37146.001497540245
564,-3400.3602770550956
599,-1963.7025246666224
600,-22196.545757665663
601,-1963.7025246666224
636,-3384.7664520730336
637,-37113.80459382169
638,-3384.7664520730336
673,-2240.645104288536
674,-22631.399194828788
675,-2240.645104288536
710,0.0
711,0.0
712,0.0
2,1, 7,21, 0,23, 0.00,60.00,SummerDesignDay
525,-5055.51229506898
526,-46659.47115352416
527,-5055.51229506898
562,-3840.103070883984
563,-36157.00247732368
564,-3840.103070883984
599,-2272.0090104294513
600,-21659.39111554815
601,-2272.0090104294513
636,-3802.2936296887437
637,-36077.20338273275
638,-3802.2936296887437
673,-2532.721378318938
674,-22138.125039277405
675,-2532.721378318938
710,0.0
711,0.0
712,0.0
2,1, 7,21, 0,24, 0.00,60.00,SummerDesignDay
525,-4594.570230229487
526,-44276.98353214116
527,-4594.570230229487
562,-3163.394793153208
563,-33917.239513750596
564,-3163.394793153208
599,-1788.4787744202824
600,-20235.370244852667
601,-1788.4787744202824
636,-3151.183814740732
637,-33872.95646039246
638,-3151.183814740732
673,-1930.211825404773
674,-20497.778262552496
675,-1930.211825404773
710,0.0
711,0.0
712,0.0
1,Broomfield Jeffco  Boulder   S CO USA TMY3 WMO#=724699,  40.13,-105.24,  -7.00,1689.00
2,1, 1, 1, 0, 1, 0.00,60.00,Holiday
525,0.0
526,-13459.583115182795
527,25686.34333459803
562,0.0
563,-9229.476424661429
564,21240.655669981017
599,0.0
600,-4063.870435316003
601,14476.729524744313
636,0.0
637,-5703.595116679321
638,25417.47182239265
673,0.0
674,-3990.5584940819995
675,14496.92598534913
710,0.0
711,0.0
712,0.0
2,1, 1, 1, 0, 2, 0.00,60.00,Holiday
525,0.0
526,-15407.760593633255
527,31992.45042445311
562,0.0
563,-10942.266965696845
564,27263.464647612676
599,0.0
600,-4806.263284890524
601,18258.95364054169
636,0.0
637,-6790.870570671603
638,32166.340688823973
673,0.0
674,-4732.517542821084
675,18344.14623520043
710,0.0
711,0.0
712,0.0
2,1, 1, 1, 0, 3, 0.00,60.00,Holiday
525,0.0
526,-10800.802563328778
527,23449.174505158106
562,0.0
563,-7801.903414750705
564,20744.244911037495
599,0.0
600,-3459.3227837262007
601,13805.554168891751
636,0.0
637,-4900.917322886043
638,24264.16730972589
673,0.0
674,-3402.1956738088707
675,13856.810019824346
710,0.0
711,0.0
712,0.0
2,1, 1, 1, 0, 4, 0.00,60.00,Holiday
525,0.0
526,-8417.391530799861
527,19110.052726774364
562,0.0
563,-6166.16756611109
564,17584.523106298264
599,0.0
600,-2760.393399290875
601,11631.398809960629
636,0.0
637,-3921.1543888903475
638,20377.7877853541
673,0.0
674,-2714.1875306595384
675,11667.365175063256
710,0.0
711,0.0
712,0.0
2,1, 1, 1, 0, 5, 0.00,60.00,Holiday
525,0.0
526,-8243.977772145307
527,19438.74146315818
562,0.0
563,-5837.692679389951
564,18049.32504965963
599,0.0
600,-2621.838980235964
601,11887.87275533686
636,0.0
637,-3725.3613047490544
638,20710.220442561567
673,0.0
674,-2577.197925687303
675,11917.70777920737
710,0.0
711,0.0
712,0.0
2,1, 1, 1, 0, 6, 0.00,60.00,Holiday
525,0.0
526,-8187.7862842943605
527,19979.516200919068
562,0.0
563,-5501.232928202883
564,18525.03026825375
599,0.0
600,-2481.741555073897
601,12198.785738047207
636,0.0
637,-3530.8232928724356
638,21134.184253786163
673,0.0
674,-2442.8551981580695
675,12241.833376670285
710,0.0
711,0.0
712,0.0
2,1, 1, 1, 0, 7, 0.00,60.00,Holiday
525,0.0
526,-8077.011558953651
527,20336.690579032558
562,0.0
563,-5229.38937319275
564,18866.781273443747
599,0.0
600,-2358.0474839731173
601,12335.59020540719
636,0.0
637,-3370.971332295872
638,21321.469831713082
673,0.0
674,-2321.7670966072455
675,12377.440870068021
710,0.0
711,0.0
712,0.0
2,1, 1, 1, 0, 8, 0.00,60.00,Holiday
525,0.0
526,-8867.807568667089
527,22958.153668694646
562,0.0
563,-5695.5039647478625
564,20986.565170016747
599,0.0
600,-2706.3021640775437
601,13642.359126707524
636,0.0
637,-3580.676495840043
638,23645.54201591019
673,0.0
674,-2452.046519003149
675,13763.574102117613
710,0.0
711,0.0
712,0.0
2,1, 1, 1, 0, 9, 0.00,60.00,Holiday
525,0.0
526,-20612.784078981007
527,53183.18523914018
562,0.0
563,-15508.011019460071
564,43376.14725154248
599,0.0
600,-7900.534576033664
601,27152.488933075947
636,0.0
637,-8179.341137591448
638,51020.72481010723
673,0.0
674,-5508.225694616641
675,29623.89402312925
710,0.0
711,0.0
712,0.0
2,1, 1, 1, 0,10, 0.00,60.00,Holiday
525,0.0
526,-30101.245753343595
527,73027.06313884784
562,0.0
563,-29079.77428189672
564,51872.78595921827
599,0.0
600,-13712.611763169742
601,34487.010114138175
636,0.0
637,-12189.362840643385
638,68762.63743835996
673,0.0
674,-8205.385316457277
675,39918.327039637705
710,0.0
711,0.0
712,0.0
2,1, 1, 1, 0,11, 0.00,60.00,Holiday
525,0.0
526,-35758.66312536218
527,72409.0773173477
562,0.0
563,-40065.375089539695
564,44753.45097903822
599,0.0
600,-14773.990764003669
601,34244.43662029403
636,0.0
637,-13798.761490819472
638,68475.77409146038
673,0.0
674,-9501.25017598798
675,39500.904534292065
710,0.0
711,0.0
712,0.0
2,1, 1, 1, 0,12, 0.00,60.00,Holiday
525,0.0
526,-29969.137967012866
527,55922.91224401061
562,0.0
563,-37899.829525893576
564,29393.811297388984
599,0.0
600,-11386.976382531697
601,26626.69988193842
636,0.0
637,-11984.995932405041
638,52497.03669380301
673,0.0
674,-8561.56891105202
675,30388.588246463205
710,0.0
711,0.0
712,0.0
2,1, 1, 1, 0,13, 0.00,60.00,Holiday
525,0.0
526,-22122.783171792205
527,38126.756103847416
562,0.0
563,-29901.063629502667
564,17216.934301303667
599,0.0
600,-8150.083509105755
601,18090.390836521885
636,0.0
637,-9108.458843491679
638,35807.29794826926
673,0.0
674,-6631.71748281425
675,20609.285313485732
710,0.0
711,0.0
712,0.0
2,1, 1, 1, 0,14, 0.00,60.00,Holiday
525,0.0
526,-14555.393936048791
527,23260.27183975252
562,0.0
563,-18155.30716408917
564,10049.345145728641
599,0.0
600,-5212.7796710365255
601,10863.09816776908
636,0.0
637,-6125.445725629332
638,21568.699695420706
673,0.0
674,-4716.720343636193
675,12382.12200141544
710,0.0
711,0.0
712,0.0
2,1, 1, 1, 0,15, 0.00,60.00,Holiday
525,0.0
526,-22537.636207210977
527,34502.62257292982
562,0.0
563,-25058.31904953074
564,16504.6062493418
599,0.0
600,-7928.758135279451
601,16551.385934483744
636,0.0
637,-9753.945028356078
638,32538.6544683909
673,0.0
674,-7876.537218421305
675,17821.29470962201
710,0.0
711,0.0
712,0.0
2,1, 1, 1, 0,16, 0.00,60.00,Holiday
525,0.0
526,-31721.840298244217
527,47603.70580743394
562,0.0
563,-31651.94478574423
564,25681.877432345445
599,0.0
600,-10885.41535029905
601,23620.812230275526
636,0.0
637,-13807.420963919392
638,45446.19719923675
673,0.0
674,-11179.642075568909
675,24003.635798054394
710,0.0
711,0.0
712,0.0
2,1, 1, 1, 0,17, 0.00,60.00,Holiday
525,0.0
526,-32939.86166962433
527,49386.58950844942
562,0.0
563,-29801.31699973548
564,28724.60918060721
599,0.0
600,-11121.455038883998
601,25016.297963103312
636,0.0
637,-14467.320289637586
638,47442.74459313126
673,0.0
674,-11543.94045054128
675,24621.85843776679
710,0.0
711,0.0
712,0.0
2,1, 1, 1, 0,18, 0.00,60.00,Holiday
525,0.0
526,-29923.211725354235
527,45639.25891369281
562,0.0
563,-25242.147819280744
564,29357.739589231438
599,0.0
600,-9781.938302822382
601,23454.861770586605
636,0.0
637,-12965.91588057932
638,43951.85607861896
673,0.0
674,-9992.569418575738
675,23364.97859760502
710,0.0
711,0.0
712,0.0
2,1, 1, 1, 0,19, 0.00,60.00,Holiday
525,0.0
526,-20712.66950710834
527,32435.172167453955
562,0.0
563,-16598.425643943665
564,21850.65592203462
599,0.0
600,-6541.6831226306485
601,16497.352707492304
636,0.0
637,-8877.826997962236
638,30887.700393837546
673,0.0
674,-6718.462193060004
675,16767.752408504643
710,0.0
711,0.0
712,0.0
2,1, 1, 1, 0,20, 0.00,60.00,Holiday
525,0.0
526,-15505.021387215316
527,24902.89166115787
562,0.0
563,-11877.733247557984
564,17383.95108445185
599,0.0
600,-4800.273449366698
601,12744.065895478323
636,0.0
637,-6501.860790859374
638,23340.00801232962
673,0.0
674,-4853.527921861496
675,12884.980759772336
710,0.0
711,0.0
712,0.0
2,1, 1, 1, 0,21, 0.00,60.00,Holiday
525,0.0
526,-11642.192123142886
527,19169.498561115233
562,0.0
563,-8351.677830036706
564,13687.702415766611
599,0.0
600,-3509.1140928735826
601,9978.292338045174
636,0.0
637,-4671.028932951
638,17643.91515052715
673,0.0
674,-3396.6853910743034
675,9735.093475890351
710,0.0
711,0.0
712,0.0
2,1, 1, 1, 0,22, 0.00,60.00,Holiday
525,0.0
526,-11490.16645438663
527,19303.627422491583
562,0.0
563,-7935.427259177176
564,14090.038880338898
599,0.0
600,-3363.525273999956
601,9993.532448473792
636,0.0
637,-4598.2499374711415
638,17809.804784834134
673,0.0
674,-3332.067691555593
675,10017.013428196347
710,0.0
711,0.0
712,0.0
2,1, 1, 1, 0,23, 0.00,60.00,Holiday
525,0.0
526,-11365.590321474936
527,19421.14619808961
562,0.0
563,-7414.236006338654
564,14579.146963013205
599,0.0
600,-3313.5241165072694
601,10575.746383775027
636,0.0
637,-4518.0160716897435
638,18558.563635169357
673,0.0
674,-3242.210303128019