Program Version,EnergyPlus, Version 8.6.0-198c6a3cff, YMD=2019.03.03 18:42
1,5,Environment Title[],Latitude[deg],Longitude[deg],Time Zone[],Elevation[m]
2,6,Day of Simulation[],Month[],Day of Month[],DST Indicator[1=yes 0=no],Hour[],StartMinute[],EndMinute[],DayType
3,3,Cumulative Day of Simulation[],Month[],Day of Month[],DST Indicator[1=yes 0=no],DayType  ! When Daily Meters Requested
4,2,Cumulative Days of Simulation[],Month[]  ! When Monthly Meters Requested
5,1,Cumulative Days of Simulation[] ! When Run Period Meters Requested
31,1,Electricity:Facility [J] !Hourly
831,1,ElectricityNet:Facility [J] !Hourly
1043,1,Gas:Facility [J] !Hourly
End of Data Dictionary
1,DENVER-AURORA-BUCKLEY.AFB_CO_USA ANN HTG 99.6% CONDNS DB,  40.13,-105.24,  -7.00,1689.00
2,1,12,21, 0, 1, 0.00,60.00,WinterDesignDay
31,8452147.64242672
831,8452147.64242672
1043,19381491.43429058
2,1,12,21, 0, 2, 0.00,60.00,WinterDesignDay
31,7946890.853607293
831,7946890.853607295
1043,16094700.142438788
2,1,12,21, 0, 3, 0.00,60.00,WinterDesignDay
31,8886942.441296246
831,8886942.441296246
1043,18258554.244821699
2,1,12,21, 0, 4, 0.00,60.00,WinterDesignDay
31,7947178.447754614
831,7947178.447754614
1043,16238855.27779631
2,1,12,21, 0, 5, 0.00,60.00,WinterDesignDay
31,8887329.081105246
831,8887329.081105246
1043,18322287.14160806
2,1,12,21, 0, 6, 0.00,60.00,WinterDesignDay
31,7947345.887642
831,7947345.887642
1043,16259819.669151962
2,1,12,21, 0, 7, 0.00,60.00,WinterDesignDay
31,10079255.232434024
831,10079255.23243402
1043,18330214.642180869
2,1,12,21, 0, 8, 0.00,60.00,WinterDesignDay
31,7527281.144404243
831,7527281.144404243
1043,13891446.119861717
2,1,12,21, 0, 9, 0.00,60.00,WinterDesignDay
31,7583570.857127244
831,7583570.857127242
1043,15213048.913481776
2,1,12,21, 0,10, 0.00,60.00,WinterDesignDay
31,6789474.318794043
831,6789474.318794043
1043,13814037.501824163
2,1,12,21, 0,11, 0.00,60.00,WinterDesignDay
31,7580374.125447668
831,7580374.125447668
1043,15199757.045197403
2,1,12,21, 0,12, 0.00,60.00,WinterDesignDay
31,6788876.672763429
831,6788876.672763429
1043,13827547.27825404
2,1,12,21, 0,13, 0.00,60.00,WinterDesignDay
31,7579217.519438364
831,7579217.519438364
1043,15247572.406184778
2,1,12,21, 0,14, 0.00,60.00,WinterDesignDay
31,6788609.4638612
831,6788609.4638612
1043,13861632.675386075
2,1,12,21, 0,15, 0.00,60.00,WinterDesignDay
31,7579780.059141818
831,7579780.059141818
1043,15221830.497319598
2,1,12,21, 0,16, 0.00,60.00,WinterDesignDay
31,6789377.98544653
831,6789377.98544653
1043,13827786.953126736
2,1,12,21, 0,17, 0.00,60.00,WinterDesignDay
31,8745186.489626795
831,8745186.489626795
1043,16301206.163873196
2,1,12,21, 0,18, 0.00,60.00,WinterDesignDay
31,9053553.310606698
831,9053553.310606698
1043,14882011.638639763
2,1,12,21, 0,19, 0.00,60.00,WinterDesignDay
31,10068781.082054304
831,10068781.082054304
1043,17880258.232673877
2,1,12,21, 0,20, 0.00,60.00,WinterDesignDay
31,8336277.472492055
831,8336277.472492056
1043,16260583.832173951
2,1,12,21, 0,21, 0.00,60.00,WinterDesignDay
31,9275775.799585516
831,9275775.799585516
1043,18370203.761691333
2,1,12,21, 0,22, 0.00,60.00,WinterDesignDay
31,8336622.878153437
831,8336622.878153438
1043,16302129.731934974
2,1,12,21, 0,23, 0.00,60.00,WinterDesignDay
31,9276639.173741283
831,9276639.173741283
1043,18364990.296857254
2,1,12,21, 0,24, 0.00,60.00,WinterDesignDay
31,8336927.312169211
831,8336927.312169211
1043,16290727.564893105
1,DENVER-AURORA-BUCKLEY.AFB_CO_USA ANN CLG .4% CONDNS DB=>MWB,  40.13,-105.24,  -7.00,1689.00
2,1, 7,21, 0, 1, 0.00,60.00,SummerDesignDay
31,41034591.28203208
831,41034591.28203208
1043,0.0
2,1, 7,21, 0, 2, 0.00,60.00,SummerDesignDay
31,39321876.70590175
831,39321876.70590174
1043,0.0
2,1, 7,21, 0, 3, 0.00,60.00,SummerDesignDay
31,40028224.61496177
831,40028224.61496177
1043,0.0
2,1, 7,21, 0, 4, 0.00,60.00,SummerDesignDay
31,38464237.79121971
831,38464237.79121971
1043,0.0
2,1, 7,21, 0, 5, 0.00,60.00,SummerDesignDay
31,39640719.46685527
831,39640719.46685527
1043,0.0
2,1, 7,21, 0, 6, 0.00,60.00,SummerDesignDay
31,37363182.52677622
831,37363182.526776228
1043,0.0
2,1, 7,21, 0, 7, 0.00,60.00,SummerDesignDay
31,44156874.00102472
831,44156874.00102472
1043,0.0
2,1, 7,21, 0, 8, 0.00,60.00,SummerDesignDay
31,43201506.94549973
831,43201506.94549973
1043,0.0
2,1, 7,21, 0, 9, 0.00,60.00,SummerDesignDay
31,44084097.03421176
831,44084097.034211758
1043,0.0
2,1, 7,21, 0,10, 0.00,60.00,SummerDesignDay
31,45150624.08128154
831,45150624.08128154
1043,0.0
2,1, 7,21, 0,11, 0.00,60.00,SummerDesignDay
31,46085001.76845698
831,46085001.76845698
1043,0.0
2,1, 7,21, 0,12, 0.00,60.00,SummerDesignDay
31,47090875.10761155
831,47090875.107611548
1043,0.0
2,1, 7,21, 0,13, 0.00,60.00,SummerDesignDay
31,47944009.744210239
831,47944009.744210239
1043,0.0
2,1, 7,21, 0,14, 0.00,60.00,SummerDesignDay
31,48662169.42636742
831,48662169.42636741
1043,0.0
2,1, 7,21, 0,15, 0.00,60.00,SummerDesignDay
31,49316601.87741272
831,49316601.87741271
1043,0.0
2,1, 7,21, 0,16, 0.00,60.00,SummerDesignDay
31,49274891.82697278
831,49274891.826972778
1043,0.0
2,1, 7,21, 0,17, 0.00,60.00,SummerDesignDay
31,48972059.62565059
831,48972059.62565059
1043,0.0
2,1, 7,21, 0,18, 0.00,60.00,SummerDesignDay
31,48432627.429574009
831,48432627.429574009
1043,0.0
2,1, 7,21, 0,19, 0.00,60.00,SummerDesignDay
31,47872188.57950125
831,47872188.57950125
1043,0.0
2,1, 7,21, 0,20, 0.00,60.00,SummerDesignDay
31,43218236.4034642
831,43218236.40346419
1043,0.0
2,1, 7,21, 0,21, 0.00,60.00,SummerDesignDay
31,41252001.0439821
831,41252001.0439821
1043,0.0
2,1, 7,21, 0,22, 0.00,60.00,SummerDesignDay
31,43181495.0661237
831,43181495.06612369
1043,0.0
2,1, 7,21, 0,23, 0.00,60.00,SummerDesignDay
31,39818643.76739396
831,39818643.767393957
1043,0.0
2,1, 7,21, 0,24, 0.00,60.00,SummerDesignDay
31,42324129.71470874
831,42324129.71470874
1043,0.0
1,Broomfield Jeffco  Boulder   S CO USA TMY3 WMO#=724699,  40.13,-105.24,  -7.00,1689.00
2,1, 1, 1, 0, 1, 0.00,60.00,Holiday
31,6404338.596677196
831,6404338.596677196
1043,0.0
2,1, 1, 1, 0, 2, 0.00,60.00,Holiday
31,6404338.596677196
831,6404338.596677196
1043,0.0
2,1, 1, 1, 0, 3, 0.00,60.00,Holiday
31,6404338.596677196
831,6404338.596677196
1043,0.0
2,1, 1, 1, 0, 4, 0.00,60.00,Holiday
31,6404338.596677196
831,6404338.596677196
1043,0.0
2,1, 1, 1, 0, 5, 0.00,60.00,Holiday
31,6404338.596677196
831,6404338.596677196
1043,0.0
2,1, 1, 1, 0, 6, 0.00,60.00,Holiday
31,6404338.596677196
831,6404338.596677196
1043,0.0
2,1, 1, 1, 0, 7, 0.00,60.00,Holiday
31,7595938.596677196
831,7595938.596677195
1043,0.0
2,1, 1, 1, 0, 8, 0.00,60.00,Holiday
31,6128818.596677196
831,6128818.596677195
1043,0.0
2,1, 1, 1, 0, 9, 0.00,60.00,Holiday
31,5395258.596677196
831,5395258.596677196
1043,0.0
2,1, 1, 1, 0,10, 0.00,60.00,Holiday
31,5395258.596677196
831,5395258.596677196
1043,0.0
2,1, 1, 1, 0,11, 0.00,60.00,Holiday
31,5395258.596677196
831,5395258.596677196
1043,0.0
2,1, 1, 1, 0,12, 0.00,60.00,Holiday
31,5395258.596677196
831,5395258.596677196
1043,0.0
2,1, 1, 1, 0,13, 0.00,60.00,Holiday
31,5395258.596677196
831,5395258.596677196
1043,0.0
2,1, 1, 1, 0,14, 0.00,60.00,Holiday
31,5395258.596677196
831,5395258.596677196
1043,0.0
2,1, 1, 1, 0,15, 0.00,60.00,Holiday
31,5395258.596677196
831,5395258.596677196
1043,0.0
2,1, 1, 1, 0,16, 0.00,60.00,Holiday
31,5395258.596677196
831,5395258.596677196
1043,0.0
2,1, 1, 1, 0,17, 0.00,60.00,Holiday
31,6128818.596677196
831,6128818.596677196
1043,0.0
2,1, 1, 1, 0,18, 0.00,60.00,Holiday
31,7595938.596677196
831,7595938.596677195
1043,0.0
2,1, 1, 1, 0,19, 0.00,60.00,Holiday
31,7595938.596677196
831,7595938.596677195
1043,0.0
2,1, 1, 1, 0,20, 0.00,60.00,Holiday
31,6794038.596677196
831,6794038.596677196
1043,0.0
2,1, 1, 1, 0,21, 0.00,60.00,Holiday
31,6794038.596677196
831,6794038.596677196
1043,0.0
2,1, 1, 1, 0,22, 0.00,60.00,Holiday
31,6794038.596677196
831,6794038.596677196
1043,0.0
2,1, 1, 1, 0,23, 0.00,60.00,Holiday
31,6794038.596677196
831,6794038.596677196
1043,0.0
2,1, 1, 1, 0,24, 0.00,60.00,Holiday
31,6794038.596677196
831,6794038.596677196
1043,0.0
2,2, 1, 2, 0, 1, 0.00,60.00,Monday
31,9469604.825749658
831,9469604.825749658
1043,0.0
2,2, 1, 2, 0, 2, 0.00,60.00,Monday
31,9469604.825749658
831,9469604.825749658
1043,0.0
2,2, 1, 2, 0, 3, 0.00,60.00,Monday
31,9469604.825749658
831,9469604.825749658
1043,0.0
2,2, 1, 2, 0, 4, 0.00,60.00,Monday
31,9469604.825749658
831,9469604.825749658
1043,0.0
2,2, 1, 2, 0, 5, 0.00,60.00,Monday
31,9469604.825749658
831,9469604.825749658
1043,0.0
2,2, 1, 2, 0, 6, 0.00,60.00,Monday
31,9469604.825749658
831,9469604.825749658
1043,0.0
2,2, 1, 2, 0, 7, 0.00,60.00,Monday
31,28236768.387804875
831,28236768.38780488
1043,2219976.61816988
2,2, 1, 2, 0, 8, 0.00,60.00,Monday
31,35959996.89665998
831,35959996.89665998
1043,3220664.880948444
2,2, 1, 2, 0, 9, 0.00,60.00,Monday
31,35423950.304462898
831,35423950.304462898
1043,0.0
2,2, 1, 2, 0,10, 0.00,60.00,Monday
31,32154076.065514
831,32154076.06551399
1043,0.0
2,2, 1, 2, 0,11, 0.00,60.00,Monday
31,30848858.171543734
831,30848858.171543726
1043,0.0
2,2, 1, 2, 0,12, 0.00,60.00,Monday
31,30209303.213305087
831,30209303.21330509
1043,0.0
2,2, 1, 2, 0,13, 0.00,60.00,Monday
31,29293312.949259864
831,29293312.949259864
1043,0.0
2,2, 1, 2, 0,14, 0.00,60.00,Monday
31,30746004.50455986
831,30746004.504559854
1043,0.0
2,2, 1, 2, 0,15, 0.00,60.00,Monday
31,30648543.577979715
831,30648543.57797971
1043,0.0
2,2, 1, 2, 0,16, 0.00,60.00,Monday
31,30581769.280575694
831,30581769.280575694
1043,0.0
2,2, 1, 2, 0,17, 0.00,60.00,Monday
31,32683630.669834276
831,32683630.669834265
1043,0.0
2,2, 1, 2, 0,18, 0.00,60.00,Monday
31,26409830.09141518
831,26409830.09141518
1043,0.0
2,2, 1, 2, 0,19, 0.00,60.00,Monday
31,22923938.421590195
831,22923938.421590199
1043,0.0
2,2, 1, 2, 0,20, 0.00,60.00,Monday
31,11853154.258345897
831,11853154.258345895
1043,0.0
2,2, 1, 2, 0,21, 0.00,60.00,Monday
31,10637784.395628443
831,10637784.395628443
1043,0.0
2,2, 1, 2, 0,22, 0.00,60.00,Monday
31,10637784.395628443
831,10637784.395628443
1043,0.0
2,2, 1, 2, 0,23, 0.00,60.00,Monday
31,9543951.519120457
831,9543951.519120455
1043,0.0
2,2, 1, 2, 0,24, 0.00,60.00,Monday
31,7197449.08321209
831,7197449.08321209
1043,0.0
2,3, 1, 3, 0, 1, 0.00,60.00,Tuesday
31,9469604.825749658
831,9469604.825749658
1043,0.0
2,3, 1, 3, 0, 2, 0.00,60.00,Tuesday
31,9469604.825749658
831,9469604.825749658
1043,0.0
2,3, 1, 3, 0, 3, 0.00,60.00,Tuesday
31,9469604.825749658
831,9469604.825749658
1043,0.0
2,3, 1, 3, 0, 4, 0.00,60.00,Tuesday
31,9469604.825749658
831,9469604.825749658
1043,0.0
2,3, 1, 3, 0, 5, 0.00,60.00,Tuesday
31,9469604.825749658
831,9469604.825749658
1043,0.0
2,3, 1, 3, 0, 6, 0.00,60.00,Tuesday
31,9469604.825749658
831,9469604.825749658
1043,0.0
2,3, 1, 3, 0, 7, 0.00,60.00,Tuesday
31,25238717.65835944
831,25238717.65835944
1043,1801261.6148413262
2,3, 1, 3, 0, 8, 0.00,60.00,Tuesday
31,33628802.82001399
831,33628802.82001399
1043,4905376.698214449
2,3, 1, 3, 0, 9, 0.00,60.00,Tuesday
31,33021081.868775675
831,33021081.868775675
1043,0.0
2,3, 1, 3, 0,10, 0.00,60.00,Tuesday
31,30973521.45632766
831,30973521.45632766
1043,0.0
2,3, 1, 3, 0,11, 0.00,60.00,Tuesday
31,30531923.617047509
831,30531923.617047505
1043,0.0
2,3, 1, 3, 0,12, 0.00,60.00,Tuesday
31,30044425.84268621
831,30044425.84268621
1043,0.0
2,3, 1, 3, 0,13, 0.00,60.00,Tuesday
31,27764679.30762467
831,27764679.30762467
1043,0.0
2,3, 1, 3, 0,14, 0.00,60.00,Tuesday
31,30712318.048932405
831,30712318.0489324
1043,0.0
2,3, 1, 3, 0,15, 0.00,60.00,Tuesday
31,30632379.305487385
831,30632379.30548738
1043,0.0
2,3, 1, 3, 0,16, 0.00,60.00,Tuesday
31,30733805.513873925
831,30733805.51387392
1043,0.0
2,3, 1, 3, 0,17, 0.00,60.00,Tuesday
31,32112492.025735108
831,32112492.025735104
1043,0.0
2,3, 1, 3, 0,18, 0.00,60.00,Tuesday
31,23740625.980777868
831,23740625.980777876
1043,0.0
2,3, 1, 3, 0,19, 0.00,60.00,Tuesday
31,18622226.414596507
831,18622226.41459651
1043,0.0
2,3, 1, 3, 0,20, 0.00,60.00,Tuesday
31,11853154.258345897
831,11853154.258345895
1043,0.0
2,3, 1, 3, 0,21, 0.00,60.00,Tuesday
31,10637784.395628443
831,10637784.395628443
1043,0.0
2,3, 1, 3, 0,22, 0.00,60.00,Tuesday
31,10637784.395628443
831,10637784.395628443
1043,0.0
2,3, 1, 3, 0,23, 0.00,60.00,Tuesday
31,9543951.519120457
831,9543951.519120455
1043,0.0
2,3, 1, 3, 0,24, 0.00,60.00,Tuesday
31,7197449.08321209
831,7197449.08321209
1043,0.0
2,4, 1, 4, 0, 1, 0.00,60.00,Wednesday
31,9469604.825749658
831,9469604.825749658
1043,0.0
2,4, 1, 4, 0, 2, 0.00,60.00,Wednesday
31,9469604.825749658
831,9469604.825749658
1043,0.0
2,4, 1, 4, 0, 3, 0.00,60.00,Wednesday
31,9469604.825749658
831,9469604.825749658
1043,0.0
2,4, 1, 4, 0, 4, 0.00,60.00,Wednesday
31,9469604.825749658
831,9469604.825749658
1043,0.0
2,4, 1, 4, 0, 5, 0.00,60.00,Wednesday
31,9469604.825749658
831,9469604.825749658
1043,0.0
2,4, 1, 4, 0, 6, 0.00,60.00,Wednesday
31,9469604.825749658
831,9469604.825749658
1043,0.0
2,4, 1, 4, 0, 7, 0.00,60.00,Wednesday
31,21443973.93204826
831,21443973.932048266
1043,670864.7587785341
2,4, 1, 4, 0, 8, 0.00,60.00,Wednesday
31,25059796.42703206
831,25059796.42703206
1043,0.0
2,4, 1, 4, 0, 9, 0.00,60.00,Wednesday
31,29921445.633079389
831,29921445.633079389
1043,0.0
2,4, 1, 4, 0,10, 0.00,60.00,Wednesday
31,29667675.573840526
831,29667675.573840526
1043,0.0
2,4, 1, 4, 0,11, 0.00,60.00,Wednesday
31,30147892.415782878
831,30147892.415782878
1043,0.0
2,4, 1, 4, 0,12, 0.00,60.00,Wednesday
31,31071961.925877084
831,31071961.925877084
1043,0.0
2,4, 1, 4, 0,13, 0.00,60.00,Wednesday
31,29531779.216128049
831,29531779.216128049
1043,0.0
2,4, 1, 4, 0,14, 0.00,60.00,Wednesday
31,33133955.945715283
831,33133955.945715283
1043,0.0
2,4, 1, 4, 0,15, 0.00,60.00,Wednesday
31,33826557.02523329
831,33826557.02523329
1043,0.0
2,4, 1, 4, 0,16, 0.00,60.00,Wednesday
31,33785130.26013384
831,33785130.26013385
1043,0.0
2,4, 1, 4, 0,17, 0.00,60.00,Wednesday
31,34494260.05793903
831,34494260.05793903
1043,0.0
2,4, 1, 4, 0,18, 0.00,60.00,Wednesday
31,23848419.715747496
831,23848419.71574749
1043,0.0
2,4, 1, 4, 0,19, 0.00,60.00,Wednesday
31,17840091.98930924
831,17840091.98930924
1043,0.0
2,4, 1, 4, 0,20, 0.00,60.00,Wednesday
31,10953154.258345897
831,10953154.258345895
1043,0.0
2,4, 1, 4, 0,21, 0.00,60.00,Wednesday
31,9737784.395628443
831,9737784.395628443
1043,0.0
2,4, 1, 4, 0,22, 0.00,60.00,Wednesday
31,9737784.395628443
831,9737784.395628443
1043,0.0
2,4, 1, 4, 0,23, 0.00,60.00,Wednesday
31,8643951.519120457
831,8643951.519120455
1043,0.0
2,4, 1, 4, 0,24, 0.00,60.00,Wednesday
31,7047449.08321209
831,7047449.08321209
1043,0.0
2,5, 1, 5, 0, 1, 0.00,60.00,Thursday
31,9469604.825749658
831,9469604.825749658
1043,0.0
2,5, 1, 5, 0, 2, 0.00,60.00,Thursday
31,9469604.825749658
831,9469604.825749658
1043,0.0
2,5, 1, 5, 0, 3, 0.00,60.00,Thursday
31,9469604.825749658
831,9469604.825749658
1043,0.0
2,5, 1, 5, 0, 4, 0.00,60.00,Thursday
31,9469604.825749658
831,9469604.825749658
1043,0.0
2,5, 1, 5, 0, 5, 0.00,60.00,Thursday
31,8869604.825749658
831,8869604.825749658
1043,0.0
2,5, 1, 5, 0, 6, 0.00,60.00,Thursday
31,8569604.825749658
831,8569604.825749658
1043,0.0
2,5, 1, 5, 0, 7, 0.00,60.00,Thursday
31,19178605.15063819
831,19178605.150638194
1043,0.0
2,5, 1, 5, 0, 8, 0.00,60.00,Thursday
31,21322801.714940706
831,21322801.714940706
1043,0.0
2,5, 1, 5, 0, 9, 0.00,60.00,Thursday
31,29869895.193983318
831,29869895.19398331
1043,0.0
2,5, 1, 5, 0,10, 0.00,60.00,Thursday
31,29711982.666224258
831,29711982.666224258
1043,0.0
2,5, 1, 5, 0,11, 0.00,60.00,Thursday
31,30742083.56993003
831,30742083.569930026
1043,0.0
2,5, 1, 5, 0,12, 0.00,60.00,Thursday
31,31594549.165102144
831,31594549.165102148
1043,0.0
2,5, 1, 5, 0,13, 0.00,60.00,Thursday
31,28737446.90866778
831,28737446.90866778
1043,0.0
2,5, 1, 5, 0,14, 0.00,60.00,Thursday
31,32277324.2472326
831,32277324.2472326
1043,0.0
2,5, 1, 5, 0,15, 0.00,60.00,Thursday
31,32494961.68373283
831,32494961.683732828
1043,0.0
2,5, 1, 5, 0,16, 0.00,60.00,Thursday
31,32298803.16276116
831,32298803.16276115
1043,0.0
2,5, 1, 5, 0,17, 0.00,60.00,Thursday
31,33040425.593767197
831,33040425.593767197
1043,0.0
2,5, 1, 5, 0,18, 0.00,60.00,Thursday
31,24340625.980777868
831,24340625.980777868
1043,0.0
2,5, 1, 5, 0,19, 0.00,60.00,Thursday
31,18740091.98930924
831,18740091.98930924
1043,0.0
2,5, 1, 5, 0,20, 0.00,60.00,Thursday
31,11853154.258345897
831,11853154.258345895
1043,0.0
2,5, 1, 5, 0,21, 0.00,60.00,Thursday
31,10487784.395628443
831,10487784.395628443
1043,0.0
2,5, 1, 5, 0,22, 0.00,60.00,Thursday
31,10637784.395628443
831,10637784.395628443
1043,0.0
2,5, 1, 5, 0,23, 0.00,60.00,Thursday
31,9543951.519120457
831,9543951.519120455
1043,0.0
2,5, 1, 5, 0,24, 0.00,60.00,Thursday
31,7197449.08321209
831,7197449.08321209
1043,0.0
2,6, 1, 6, 0, 1, 0.00,60.00,Friday
31,9469604.825749658
831,9469604.825749658
1043,0.0
2,6, 1, 6, 0, 2, 0.00,60.00,Friday
31,9469604.825749658
831,9469604.825749658
1043,0.0
2,6, 1, 6, 0, 3, 0.00,60.00,Friday
31,9469604.825749658
831,9469604.825749658
1043,0.0
2,6, 1, 6, 0, 4, 0.00,60.00,Friday
31,9469604.825749658
831,9469604.825749658
1043,0.0
2,6, 1, 6, 0, 5, 0.00,60.00,Friday
31,9469604.825749658
831,9469604.825749658
1043,0.0
2,6, 1, 6, 0, 6, 0.00,60.00,Friday
31,9469604.825749658
831,9469604.825749658
1043,0.0
2,6, 1, 6, 0, 7, 0.00,60.00,Friday
31,20356346.55767493
831,20356346.55767493
1043,0.0
2,6, 1, 6, 0, 8, 0.00,60.00,Friday
31,29319581.012777464
831,29319581.012777464
1043,0.0
2,6, 1, 6, 0, 9, 0.00,60.00,Friday
31,31179823.04104696
831,31179823.041046956
1043,0.0
2,6, 1, 6, 0,10, 0.00,60.00,Friday
31,30539859.021357616
831,30539859.021357616
1043,0.0
2,6, 1, 6, 0,11, 0.00,60.00,Friday
31,30462935.04598796
831,30462935.045987958
1043,0.0
2,6, 1, 6, 0,12, 0.00,60.00,Friday
31,30675259.904738115
831,30675259.904738107
1043,0.0
2,6, 1, 6, 0,13, 0.00,60.00,Friday
31,31072981.84158345
831,31072981.84158345
1043,0.0
2,6, 1, 6, 0,14, 0.00,60.00,Friday
31,30610547.347997317
831,30610547.347997317
1043,0.0
2,6, 1, 6, 0,15, 0.00,60.00,Friday
31,30650866.834837934
831,30650866.83483793
1043,0.0
2,6, 1, 6, 0,16, 0.00,60.00,Friday
31,31241280.080431735
831,31241280.080431723
1043,0.0
2,6, 1, 6, 0,17, 0.00,60.00,Friday
31,32683630.669834276
831,32683630.669834265
1043,0.0
2,6, 1, 6, 0,18, 0.00,60.00,Friday
31,27733978.069960894
831,27733978.069960894
1043,0.0
2,6, 1, 6, 0,19, 0.00,60.00,Friday
31,22740995.821971675
831,22740995.821971675
1043,0.0
2,6, 1, 6, 0,20, 0.00,60.00,Friday
31,11853154.258345897
831,11853154.258345895
1043,0.0
2,6, 1, 6, 0,21, 0.00,60.00,Friday
31,10637784.395628443
831,10637784.395628443
1043,0.0
2,6, 1, 6, 0,22, 0.00,60.00,Friday
31,10637784.395628443
831,10637784.395628443
1043,0.0
2,6, 1, 6, 0,23, 0.00,60.00,Friday
31,9543951.519120457
831,9543951.519120455
1043,0.0
2,6, 1, 6, 0,24, 0.00,60.00,Friday
31,7197449.08321209
831,7197449.08321209
1043,0.0
2,7, 1, 7, 0, 1, 0.00,60.00,Saturday
31,6404338.596677196
831,6404338.596677196
1043,0.0
2,7, 1, 7, 0, 2, 0.00,60.00,Saturday
31,6404338.596677196
831,6404338.596677196
1043,0.0
2,7, 1, 7, 0, 3, 0.00,60.00,Saturday
31,6404338.596677196
831,6404338.596677196
1043,0.0
2,7, 1, 7, 0, 4, 0.00,60.00,Saturday
31,6404338.596677196
831,6404338.596677196
1043,0.0
2,7, 1, 7, 0, 5, 0.00,60.00,Saturday
31,6404338.596677196
831,6404338.596677196
1043,0.0
2,7, 1, 7, 0, 6, 0.00,60.00,Saturday
31,6404338.596677196
831,6404338.596677196
1043,0.0
2,7, 1, 7, 0, 7, 0.00,60.00,Saturday
31,7595938.596677196
831,7595938.596677195
1043,0.0
2,7, 1, 7, 0, 8, 0.00,60.00,Saturday
31,6128818.596677196
831,6128818.596677195
1043,0.0
2,7, 1, 7, 0, 9, 0.00,60.00,Saturday
31,5395258.596677196
831,5395258.596677196
1043,0.0
2,7, 1, 7, 0,10, 0.00,60.00,Saturday
31,5395258.596677196
831,5395258.596677196
1043,0.0
2,7, 1, 7, 0,11, 0.00,60.00,Saturday
31,5395258.596677196
831,5395258.596677196
1043,0.0
2,7, 1, 7, 0,12, 0.00,60.00,Saturday
31,5395258.596677196
831,5395258.596677196
1043,0.0
2,7, 1, 7, 0,13, 0.00,60.00,Saturday
31,5395258.596677196
831,5395258.596677196
1043,0.0
2,7, 1, 7, 0,14, 0.00,60.00,Saturday
31,5395258.596677196
831,5395258.596677196
1043,0.0
2,7, 1, 7, 0,15, 0.00,60.00,Saturday
31,5395258.596677196
831,5395258.596677196
1043,0.0
2,7, 1, 7, 0,16, 0.00,60.00,Saturday
31,5395258.596677196
831,5395258.596677196
1043,0.0
2,7, 1, 7, 0,17, 0.00,60.00,Saturday
31,6128818.596677196
831,6128818.596677196
1043,0.0
2,7, 1, 7, 0,18, 0.00,60.00,Saturday
31,7595938.596677196
831,7595938.596677195
1043,0.0
2,7, 1, 7, 0,19, 0.00,60.00,Saturday
31,7595938.596677196
831,7595938.596677195
1043,0.0
2,7, 1, 7, 0,20, 0.00,60.00,Saturday
31,6794038.596677196
831,6794038.596677196
1043,0.0
2,7, 1, 7, 0,21, 0.00,60.00,Saturday
31,6794038.596677196
831,6794038.596677196
1043,0.0
2,7, 1, 7, 0,22, 0.00,60.00,Saturday
31,6794038.596677196
831,6794038.596677196
1043,0.0
2,7, 1, 7, 0,23, 0.00,60.00,Saturday
31,6794038.596677196
831,6794038.596677196
1043,0.0
2,7, 1, 7, 0,24, 0.00,60.00,Saturday
31,6794038.596677196
831,6794038.596677196
1043,0.0
2,8, 1, 8, 0, 1, 0.00,60.00,Sunday
31,6404338.596677196
831,6404338.596677196
1043,0.0
2,8, 1, 8, 0, 2, 0.00,60.00,Sunday
31,6404338.596677196
831,6404338.596677196
1043,0.0
2,8, 1, 8, 0, 3, 0.00,60.00,Sunday
31,6404338.596677196
831,6404338.596677196
1043,0.0
2,8, 1, 8, 0, 4, 0.00,60.00,Sunday
31,6404338.596677196
831,6404338.596677196
1043,0.0
2,8, 1, 8, 0, 5, 0.00,60.00,Sunday
31,6404338.596677196
831,6404338.596677196
1043,0.0
2,8, 1, 8, 0, 6, 0.00,60.00,Sunday
31,6404338.596677196
831,6404338.596677196
1043,0.0
2,8, 1, 8, 0, 7, 0.00,60.00,Sunday
31,7595938.596677196
831,7595938.596677195
1043,0.0
2,8, 1, 8, 0, 8, 0.00,60.00,Sunday
31,6128818.596677196
831,6128818.596677195
1043,0.0
2,8, 1, 8, 0, 9, 0.00,60.00,Sunday
31,5395258.596677196
831,5395258.596677196
1043,0.0
2,8, 1, 8, 0,10, 0.00,60.00,Sunday
31,5395258.596677196
831,5395258.596677196
1043,0.0
2,8, 1, 8, 0,11, 0.00,60.00,Sunday
31,5395258.596677196
831,5395258.596677196
1043,0.0
2,8, 1, 8, 0,12, 0.00,60.00,Sunday
31,5395258.596677196
831,5395258.596677196
1043,0.0
2,8, 1, 8, 0,13, 0.00,60.00,Sunday
31,5395258.596677196
831,5395258.596677196
1043,0.0
2,8, 1, 8, 0,14, 0.00,60.00,Sunday
31,5395258.596677196
831,5395258.596677196
1043,0.0
2,8, 1, 8, 0,15, 0.00,60.00,Sunday
31,5395258.596677196
831,5395258.596677196
1043,0.0
2,8, 1, 8, 0,16, 0.00,60.00,Sunday
31,5395258.596677196
831,5395258.596677196
1043,0.0
2,8, 1, 8, 0,17, 0.00,60.00,Sunday
31,6128818.596677196
831,6128818.596677196
1043,0.0
2,8, 1, 8, 0,18, 0.00,60.00,Sunday
31,7595938.596677196
831,7595938.596677195
1043,0.0
2,8, 1, 8, 0,19, 0.00,60.00,Sunday
31,7595938.596677196
831,7595938.596677195
1043,0.0
2,8, 1, 8, 0,20, 0.00,60.00,Sunday
31,6794038.596677196
831,6794038.596677196
1043,0.0
2,8, 1, 8, 0,21, 0.00,60.00,Sunday
31,6794038.596677196
831,6794038.596677196
1043,0.0
2,8, 1, 8, 0,22, 0.00,60.00,Sunday
31,6794038.596677196
831,6794038.596677196
1043,0.0
2,8, 1, 8, 0,23, 0.00,60.00,Sunday
31,6794038.596677196
831,6794038.596677196
1043,0.0
2,8, 1, 8, 0,24, 0.00,60.00,Sunday
31,6794038.596677196
831,6794038.596677196
1043,0.0
2,9, 1, 9, 0, 1, 0.00,60.00,Monday
31,9469604.825749658
831,9469604.825749658
1043,0.0
2,9, 1, 9, 0, 2, 0.00,60.00,Monday
31,9469604.825749658
831,9469604.825749658
1043,0.0
2,9, 1, 9, 0, 3, 0.00,60.00,Monday
31,9469604.825749658
831,9469604.825749658
1043,0.0
2,9, 1, 9, 0, 4, 0.00,60.00,Monday
31,9469604.825749658
831,9469604.825749658
1043,0.0
2,9, 1, 9, 0, 5, 0.00,60.00,Monday
31,9469604.825749658
831,9469604.825749658
1043,0.0
2,9, 1, 9, 0, 6, 0.00,60.00,Monday
31,9469604.825749658
831,9469604.825749658
1043,0.0
2,9, 1, 9, 0, 7, 0.00,60.00,Monday
31,33406401.92379031
831,33406401.923790315
1043,8493162.743772079
2,9, 1, 9, 0, 8, 0.00,60.00,Monday
31,38397146.74317209
831,38397146.74317208
1043,15244119.171823133
2,9, 1, 9, 0, 9, 0.00,60.00,Monday
31,37099342.34364654
831,37099342.34364654
1043,0.0
2,9, 1, 9, 0,10, 0.00,60.00,Monday
31,32390173.52485234
831,32390173.52485234
1043,0.0
2,9, 1, 9, 0,11, 0.00,60.00,Monday
31,31071349.81621947
831,31071349.81621947
1043,0.0
2,9, 1, 9, 0,12, 0.00,60.00,Monday
31,30432561.762454057
831,30432561.76245405
1043,0.0
2,9, 1, 9, 0,13, 0.00,60.00,Monday
31,27642354.160211006
831,27642354.160211009
1043,0.0
2,9, 1, 9, 0,14, 0.00,60.00,Monday
31,29548228.086913647
831,29548228.086913639
1043,0.0
2,9, 1, 9, 0,15, 0.00,60.00,Monday
31,30227704.52717881
831,30227704.52717881
1043,0.0
2,9, 1, 9, 0,16, 0.00,60.00,Monday
31,30515176.575714139
831,30515176.575714135
1043,0.0
2,9, 1, 9, 0,17, 0.00,60.00,Monday
31,32546952.720385478
831,32546952.72038547
1043,0.0
2,9, 1, 9, 0,18, 0.00,60.00,Monday
31,25847911.372396247
831,25847911.372396247
1043,0.0
2,9, 1, 9, 0,19, 0.00,60.00,Monday
31,22413985.68504346
831,22413985.68504346
1043,0.0
2,9, 1, 9, 0,20, 0.00,60.00,Monday
31,11853154.258345897
831,11853154.258345895
1043,0.0
2,9, 1, 9, 0,21, 0.00,60.00,Monday
31,10637784.395628443
831,10637784.395628443
1043,0.0
2,9, 1, 9, 0,22, 0.00,60.00,Monday
31,10637784.395628443
831,10637784.395628443
1043,0.0
2,9, 1, 9, 0,23, 0.00,60.00,Monday
31,9543951.519120457
831,9543951.519120455
1043,0.0
2,9, 1, 9, 0,24, 0.00,60.00,Monday
31,7197449.08321209
831,7197449.08321209
1043,0.0
2,10, 1,10, 0, 1, 0.00,60.00,Tuesday
31,9469604.825749658
831,9469604.825749658
1043,0.0
2,10, 1,10, 0, 2, 0.00,60.00,Tuesday
31,9469604.825749658
831,9469604.825749658
1043,0.0
2,10, 1,10, 0, 3, 0.00,60.00,Tuesday
31,9469604.825749658
831,9469604.825749658
1043,0.0
2,10, 1,10, 0, 4, 0.00,60.00,Tuesday
31,9469604.825749658
831,9469604.825749658
1043,0.0
2,10, 1,10, 0, 5, 0.00,60.00,Tuesday
31,9469604.825749658
831,9469604.825749658
1043,0.0
2,10, 1,10, 0, 6, 0.00,60.00,Tuesday
31,9469604.825749658
831,9469604.825749658
1043,0.0
2,10, 1,10, 0, 7, 0.00,60.00,Tuesday
31,25892117.67616412
831,25892117.676164114
1043,2120365.768238519
2,10, 1,10, 0, 8, 0.00,60.00,Tuesday
31,33837566.52549149
831,33837566.52549149
1043,5997427.240323394
2,10, 1,10, 0, 9, 0.00,60.00,Tuesday
31,33090522.4029108
831,33090522.40291079
1043,0.0
2,10, 1,10, 0,10, 0.00,60.00,Tuesday
31,30992185.829347753
831,30992185.829347746
1043,0.0
2,10, 1,10, 0,11, 0.00,60.00,Tuesday
31,30463558.379159329
831,30463558.379159329
1043,0.0
2,10, 1,10, 0,12, 0.00,60.00,Tuesday
31,30731623.448876189
831,30731623.448876189
1043,0.0
2,10, 1,10, 0,13, 0.00,60.00,Tuesday
31,28376889.343309016
831,28376889.34330901
1043,0.0
2,10, 1,10, 0,14, 0.00,60.00,Tuesday
31,31211027.27981168
831,31211027.279811678
1043,0.0
2,10, 1,10, 0,15, 0.00,60.00,Tuesday
31,30953691.736270884
831,30953691.736270884
1043,0.0
2,10, 1,10, 0,16, 0.00,60.00,Tuesday
31,31194592.421790434
831,31194592.42179043
1043,0.0
2,10, 1,10, 0,17, 0.00,60.00,Tuesday
31,32483892.7050803
831,32483892.7050803
1043,0.0
2,10, 1,10, 0,18, 0.00,60.00,Tuesday
31,24640625.980777868
831,24640625.980777876
1043,0.0
2,10, 1,10, 0,19, 0.00,60.00,Tuesday
31,19369082.208462579
831,19369082.208462579
1043,0.0
2,10, 1,10, 0,20, 0.00,60.00,Tuesday
31,11853154.258345897
831,11853154.258345895
1043,0.0
2,10, 1,10, 0,21, 0.00,60.00,Tuesday
31,10637784.395628443
831,10637784.395628443
1043,0.0
2,10, 1,10, 0,22, 0.00,60.00,Tuesday
31,10637784.395628443
831,10637784.395628443
1043,0.0
2,10, 1,10, 0,23, 0.00,60.00,Tuesday
31,9543951.519120457
831,9543951.519120455
1043,0.0
2,10, 1,10, 0,24, 0.00,60.00,Tuesday
31,7197449.08321209
831,7197449.08321209
1043,0.0
2,11, 1,11, 0, 1, 0.00,60.00,Wednesday
31,9469604.825749658
831,9469604.825749658
1043,0.0
2,11, 1,11, 0, 2, 0.00,60.00,Wednesday
31,9469604.825749658
831,9469604.825749658
1043,0.0
2,11, 1,11, 0, 3, 0.00,60.00,Wednesday
31,9469604.825749658
831,9469604.825749658
1043,0.0
2,11, 1,11, 0, 4, 0.00,60.00,Wednesday
31,9469604.825749658
831,9469604.825749658
1043,0.0
2,11, 1,11, 0, 5, 0.00,60.00,Wednesday
31,9469604.825749658
831,9469604.825749658
1043,0.0
2,11, 1,11, 0, 6, 0.00,60.00,Wednesday
31,9469604.825749658
831,9469604.825749658
1043,0.0
2,11, 1,11, 0, 7, 0.00,60.00,Wednesday
31,21881068.720764705
831,21881068.720764709
1043,1564601.9692902177
2,11, 1,11, 0, 8, 0.00,60.00,Wednesday
31,28209293.18962473
831,28209293.189624728
1043,0.0
2,11, 1,11, 0, 9, 0.00,60.00,Wednesday
31,31110072.11543882
831,31110072.11543882
1043,0.0
2,11, 1,11, 0,10, 0.00,60.00,Wednesday
31,29841978.445407377
831,29841978.445407377
1043,0.0
2,11, 1,11, 0,11, 0.00,60.00,Wednesday
31,30350983.51305144
831,30350983.513051437
1043,0.0
2,11, 1,11, 0,12, 0.00,60.00,Wednesday
31,31111200.980192864
831,31111200.980192864
1043,0.0
2,11, 1,11, 0,13, 0.00,60.00,Wednesday
31,29102679.338827924
831,29102679.338827917
1043,0.0
2,11, 1,11, 0,14, 0.00,60.00,Wednesday
31,32289584.810399794
831,32289584.81039979
1043,0.0
2,11, 1,11, 0,15, 0.00,60.00,Wednesday
31,33048481.849127279
831,33048481.84912727
1043,0.0
2,11, 1,11, 0,16, 0.00,60.00,Wednesday
31,33259030.091494897
831,33259030.091494897
1043,0.0
2,11, 1,11, 0,17, 0.00,60.00,Wednesday
31,33978506.53985323
831,33978506.539853218
1043,0.0
2,11, 1,11, 0,18, 0.00,60.00,Wednesday
31,23789957.23699242
831,23789957.23699242
1043,0.0
2,11, 1,11, 0,19, 0.00,60.00,Wednesday
31,17840091.98930924
831,17840091.98930924
1043,0.0
2,11, 1,11, 0,20, 0.00,60.00,Wednesday
31,11403154.258345897
831,11403154.258345895
1043,0.0
2,11, 1,11, 0,21, 0.00,60.00,Wednesday
31,10637784.395628443
831,10637784.395628443
1043,0.0
2,11, 1,11, 0,22, 0.00,60.00,Wednesday
31,10637784.395628443
831,10637784.395628443
1043,0.0
2,11, 1,11, 0,23, 0.00,60.00,Wednesday
31,9543951.519120457
831,9543951.519120455
1043,0.0
2,11, 1,11, 0,24, 0.00,60.00,Wednesday
31,7197449.08321209
831,7197449.08321209
1043,0.0
2,12, 1,12, 0, 1, 0.00,60.00,Thursday
31,9469604.825749658
831,9469604.825749658
1043,0.0
2,12, 1,12, 0, 2, 0.00,60.00,Thursday
31,9469604.825749658
831,9469604.825749658
1043,0.0
2,12, 1,12, 0, 3, 0.00,60.00,Thursday
31,9469604.825749658
831,9469604.825749658
1043,0.0
2,12, 1,12, 0, 4, 0.00,60.00,Thursday
31,9469604.825749658
831,9469604.825749658
1043,0.0
2,12, 1,12, 0, 5, 0.00,60.00,Thursday
31,9469604.825749658
831,9469604.825749658
1043,0.0
2,12, 1,12, 0, 6, 0.00,60.00,Thursday