Program Version,EnergyPlus, Version 8.6.0-198c6a3cff, YMD=2019.03.03 18:58
1,5,Environment Title[],Latitude[deg],Longitude[deg],Time Zone[],Elevation[m]
2,6,Day of Simulation[],Month[],Day of Month[],DST Indicator[1=yes 0=no],Hour[],StartMinute[],EndMinute[],DayType
3,3,Cumulative Day of Simulation[],Month[],Day of Month[],DST Indicator[1=yes 0=no],DayType  ! When Daily Report Variables Requested
4,2,Cumulative Days of Simulation[],Month[]  ! When Monthly Report Variables Requested
5,1,Cumulative Days of Simulation[] ! When Run Period Report Variables Requested
525,1,CORE_ZN,Zone Predicted Sensible Load to Setpoint Heat Transfer Rate [W] !Hourly
526,1,CORE_ZN,Zone Predicted Sensible Load to Heating Setpoint Heat Transfer Rate [W] !Hourly
527,1,CORE_ZN,Zone Predicted Sensible Load to Cooling Setpoint Heat Transfer Rate [W] !Hourly
562,1,PERIMETER_ZN_1,Zone Predicted Sensible Load to Setpoint Heat Transfer Rate [W] !Hourly
563,1,PERIMETER_ZN_1,Zone Predicted Sensible Load to Heating Setpoint Heat Transfer Rate [W] !Hourly
564,1,PERIMETER_ZN_1,Zone Predicted Sensible Load to Cooling Setpoint Heat Transfer Rate [W] !Hourly
599,1,PERIMETER_ZN_2,Zone Predicted Sensible Load to Setpoint Heat Transfer Rate [W] !Hourly
600,1,PERIMETER_ZN_2,Zone Predicted Sensible Load to Heating Setpoint Heat Transfer Rate [W] !Hourly
601,1,PERIMETER_ZN_2,Zone Predicted Sensible Load to Cooling Setpoint Heat Transfer Rate [W] !Hourly
636,1,PERIMETER_ZN_3,Zone Predicted Sensible Load to Setpoint Heat Transfer Rate [W] !Hourly
637,1,PERIMETER_ZN_3,Zone Predicted Sensible Load to Heating Setpoint Heat Transfer Rate [W] !Hourly
638,1,PERIMETER_ZN_3,Zone Predicted Sensible Load to Cooling Setpoint Heat Transfer Rate [W] !Hourly
673,1,PERIMETER_ZN_4,Zone Predicted Sensible Load to Setpoint Heat Transfer Rate [W] !Hourly
674,1,PERIMETER_ZN_4,Zone Predicted Sensible Load to Heating Setpoint Heat Transfer Rate [W] !Hourly
675,1,PERIMETER_ZN_4,Zone Predicted Sensible Load to Cooling Setpoint Heat Transfer Rate [W] !Hourly
710,1,ATTIC,Zone Predicted Sensible Load to Setpoint Heat Transfer Rate [W] !Hourly
711,1,ATTIC,Zone Predicted Sensible Load to Heating Setpoint Heat Transfer Rate [W] !Hourly
712,1,ATTIC,Zone Predicted Sensible Load to Cooling Setpoint Heat Transfer Rate [W] !Hourly
End of Data Dictionary
1,BUFFALO.NIAGARA.INTL.AP_NY_USA ANN HTG 99.6% CONDNS DB,  41.98, -87.92,  -6.00, 201.00
2,1, 1,21, 0, 1, 0.00,60.00,WinterDesignDay
525,1956.8327522855925
526,1937.50502478649
527,46312.865725626565
562,4103.998296665321
563,4103.998296665321
564,39373.1052820368
599,2571.5867433916287
600,2571.5867433916287
601,23730.50784871048
636,4152.987590077306
637,4152.987590077306
638,39514.1213327226
673,2579.841479531067
674,2579.841479531067
675,23740.057516704237
710,0.0
711,0.0
712,0.0
2,1, 1,21, 0, 2, 0.00,60.00,WinterDesignDay
525,2079.988783651363
526,2060.691784758552
527,48798.47214005762
562,5316.612629791644
563,5316.612629791644
564,42767.368372483696
599,3316.298909553961
600,3316.298909553961
601,25780.804494338223
636,5355.684613489957
637,5355.684613489957
638,42855.88076391928
673,3325.6485150235912
674,3325.6485150235912
675,25792.47509635331
710,0.0
711,0.0
712,0.0
2,1, 1,21, 0, 3, 0.00,60.00,WinterDesignDay
525,1494.566290822436
526,1455.7884695351295
527,45551.19766210768
562,4109.161721460737
563,4109.161721460737
564,39380.67187566122
599,2574.4222017618263
600,2574.4222017618263
601,23734.708270374093
636,4158.238237251389
637,4158.238237251389
638,39521.75300586308
673,2582.6247483162747
674,2582.6247483162747
675,23744.180008157735
710,0.0
711,0.0
712,0.0
2,1, 1,21, 0, 4, 0.00,60.00,WinterDesignDay
525,2087.8999728959907
526,2068.500738200775
527,48826.575075256325
562,5321.6304181290825
563,5321.6304181290825
564,42775.09134647812
599,3319.178699677257
600,3319.178699677257
601,25785.2313169765
636,5360.762895466728
637,5360.762895466728
638,42863.68390449623
673,3328.5127794372615
674,3328.5127794372615
675,25796.870517818268
710,0.0
711,0.0
712,0.0
2,1, 1,21, 0, 5, 0.00,60.00,WinterDesignDay
525,1494.5595494092097
526,1455.8161282001213
527,45565.23953595938
562,4112.1525833988335
563,4112.1525833988335
564,39385.0776067093
599,2576.218823701227
600,2576.218823701227
601,23737.370681511427
636,4161.27145944622
637,4161.27145944622
638,39526.17697862637
673,2584.41821122384
674,2584.41821122384
675,23746.834930548084
710,0.0
711,0.0
712,0.0
2,1, 1,21, 0, 6, 0.00,60.00,WinterDesignDay
525,2084.3445815098835
526,2065.0119288708584
527,48832.05960971317
562,5324.506510491152
563,5324.506510491152
564,42779.46268736225
599,3320.9314610273473
600,3320.9314610273473
601,25787.916930309497
636,5363.683617285763
637,5363.683617285763
638,42868.13330339245
673,3330.26292932928
674,3330.26292932928
675,25799.551034264234
710,0.0
711,0.0
712,0.0
2,1, 1,21, 0, 7, 0.00,60.00,WinterDesignDay
525,1491.150588092255
526,1452.5771167763976
527,45571.774453339654
562,4114.0362923803195
563,4114.0362923803195
564,39387.793294308656
599,2577.39093705409
600,2577.39093705409
601,23739.087165499976
636,4163.1945604819175
637,4163.1945604819175
638,39528.9529765281
673,2585.5904610689977
674,2585.5904610689977
675,23748.551315022953
710,0.0
711,0.0
712,0.0
2,1, 1,21, 0, 8, 0.00,60.00,WinterDesignDay
525,1963.0566886736572
526,1955.7677261923698
527,44155.369286798574
562,4118.556969426273
563,4102.21714020786
564,37820.750493056294
599,2524.8276586708907
600,2522.0328153637747
601,22718.940261241445
636,4138.626715261949
637,4119.338764248909
638,37826.1998662707
673,2535.520077293843
674,2534.9493648596426
675,22737.375506754415
710,0.0
711,0.0
712,0.0
2,1, 1,21, 0, 9, 0.00,60.00,WinterDesignDay
525,1509.0205074855166
526,1501.0979726599555
527,41048.81791297974
562,3174.3136965585763
563,3158.702751512042
564,34552.32379062663
599,1941.3415854434415
600,1938.7887689342688
601,20689.384561115487
636,3183.407805469809
637,3164.74205554348
638,34520.068182133524
673,1953.9899110382185
674,1953.6551190083521
675,20712.87764885987
710,0.0
711,0.0
712,0.0
2,1, 1,21, 0,10, 0.00,60.00,WinterDesignDay
525,1869.649617717824
526,1869.5749278278956
527,41772.43437325892
562,3764.036905516326
563,3764.036905516326
564,35737.884786066665
599,2310.6276787816696
600,2310.6276787816696
601,21464.326285461404
636,3780.856722078807
637,3780.856722078807
638,35738.61549576795
673,2320.9318535568254
674,2320.9318535568254
675,21480.62094432226
710,0.0
711,0.0
712,0.0
2,1, 1,21, 0,11, 0.00,60.00,WinterDesignDay
525,1402.911640977697
526,1402.726529394653
527,38653.10499645267
562,2829.297168466843
563,2829.297168466843
564,32488.132274705047
599,1737.477830009949
600,1737.477830009949
601,19458.849456804357
636,2836.462479501624
637,2836.462479501624
638,32458.666213915625
673,1749.854690389113
674,1749.854690389113
675,19479.732162851105
710,0.0
711,0.0
712,0.0
2,1, 1,21, 0,12, 0.00,60.00,WinterDesignDay
525,1890.2257002608292
526,1890.025867659885
527,41786.8166239932
562,3756.7531486718926
563,3756.7531486718926
564,35724.86261340722
599,2306.2045415264975
600,2306.2045415264975
601,21458.32599420671
636,3773.941897711486
637,3773.941897711486
638,35727.95713653489
673,2316.411106555536
674,2316.411106555536
675,21474.323475581907
710,0.0
711,0.0
712,0.0
2,1, 1,21, 0,13, 0.00,60.00,WinterDesignDay
525,1429.6732158829811
526,1429.1116473494542
527,38662.22970408467
562,2825.3160757191
563,2825.3160757191
564,32479.49656240313
599,1736.092952249529
600,1736.092952249529
601,19459.51479435185
636,2833.5308015927853
637,2833.5308015927853
638,32455.490248178034
673,1748.3545351633331
674,1748.3545351633331
675,19479.92302581974
710,0.0
711,0.0
712,0.0
2,1, 1,21, 0,14, 0.00,60.00,WinterDesignDay
525,1912.7295909959223
526,1912.4058946956272
527,41805.09117069282
562,3752.963425444359
563,3752.963425444359
564,35717.77706353936
599,2304.2161005733033
600,2304.2161005733033
601,21456.511967152943
636,3770.562981365947
637,3770.562981365947
638,35723.28505193836
673,2314.3683315947915
674,2314.3683315947915
675,21472.294544762837
710,0.0
711,0.0
712,0.0
2,1, 1,21, 0,15, 0.00,60.00,WinterDesignDay
525,1414.8350785944046
526,1414.3116850687022
527,38650.40787479592
562,2822.7615211712364
563,2822.7615211712364
564,32473.649838086396
599,1735.4458460245194
600,1735.4458460245194
601,19460.9411490241
636,2831.8516158560537
637,2831.8516158560537
638,32454.213445950594
673,1747.6305954041366
674,1747.6305954041366
675,19481.010975762012
710,0.0
711,0.0
712,0.0
2,1, 1,21, 0,16, 0.00,60.00,WinterDesignDay
525,1888.9997485446875
526,1888.8242146679938
527,41787.97257360816
562,3750.267604808638
563,3750.267604808638
564,35712.70855698116
599,2302.8332349837306
600,2302.8332349837306
601,21455.333103294124
636,3768.1684344501105
637,3768.1684344501105
638,35720.04053770672
673,2312.9515141742063
674,2312.9515141742063
675,21470.973556598274
710,0.0
711,0.0
712,0.0
2,1, 1,21, 0,17, 0.00,60.00,WinterDesignDay
525,1424.3449611352062
526,1423.8896931477077
527,38662.083205350886
562,2820.8268875018
563,2820.8268875018
564,32469.275684217533
599,1734.9318118136132
600,1734.9318118136132
601,19461.90661996339
636,2830.5532650688383
637,2830.5532650688383
638,32453.200611254677
673,1747.0652517242643
674,1747.0652517242643
675,19481.748407580028
710,0.0
711,0.0
712,0.0
2,1, 1,21, 0,18, 0.00,60.00,WinterDesignDay
525,1881.4099952614167
526,1881.3020991792794
527,41783.43137322038
562,3748.261695564577
563,3748.261695564577
564,35708.919636840794
599,2301.7946913835453
600,2301.7946913835453
601,21454.425228871023
636,3766.3792452439393
637,3766.3792452439393
638,35717.61292475173
673,2311.890237349181
674,2311.890237349181
675,21469.968165606577
710,0.0
711,0.0
712,0.0
2,1, 1,21, 0,19, 0.00,60.00,WinterDesignDay
525,1529.808300882416
526,1509.6541843856583
527,43319.48475806215
562,3920.7716170560057
563,3920.7716170560057
564,37286.991788288135
599,2445.984427842663
600,2445.984427842663
601,22426.830894799405
636,3952.9801718755693
637,3952.9801718755693
638,37354.40860611965
673,2455.891618650064
674,2455.891618650064
675,22440.72289539703
710,0.0
711,0.0
712,0.0
2,1, 1,21, 0,20, 0.00,60.00,WinterDesignDay
525,2129.4849368467794
526,2109.615122715545
527,48870.84693164459
562,5291.650626310108
563,5291.650626310108
564,42726.40627687421
599,3297.7031855198825
600,3297.7031855198825
601,25748.961040740807
636,5329.966927736655
637,5329.966927736655
638,42814.21677703881
673,3306.9136734225126
674,3306.9136734225126
675,25760.29818079814
710,0.0
711,0.0
712,0.0
2,1, 1,21, 0,21, 0.00,60.00,WinterDesignDay
525,1529.8624255213656
526,1489.9756876150595
527,45590.99052305273
562,4097.045564473547
563,4097.045564473547
564,39361.253817175755
599,2565.211468030871
600,2565.211468030871
601,23718.925865317116
636,4145.710751670688
637,4145.710751670688
638,39501.942724632594
673,2573.3170404561915
674,2573.3170404561915
675,23728.175323837673
710,0.0
711,0.0
712,0.0
2,1, 1,21, 0,22, 0.00,60.00,WinterDesignDay
525,2123.4978330694903
526,2103.7157796652523
527,48875.34130122835
562,5311.627962104633
563,5311.627962104633
564,42759.79133354157
599,3311.96189829166
600,3311.96189829166
601,25773.90587669611
636,5350.407654797179
637,5350.407654797179
638,42847.77543837597
673,3321.241300492697
674,3321.241300492697
675,25785.453013272287
710,0.0
711,0.0
712,0.0
2,1, 1,21, 0,23, 0.00,60.00,WinterDesignDay
525,1512.16248929622
526,1472.7920136025984
527,45588.9604319267
562,4105.930782595404
563,4105.930782595404
564,39376.083118466646
599,2571.678197236054
600,2571.678197236054
601,23730.513893710682
636,4154.779032948813
637,4154.779032948813
638,39516.69908233974
673,2579.834472141161
674,2579.834472141161
675,23739.906205245123
710,0.0
711,0.0
712,0.0
2,1, 1,21, 0,24, 0.00,60.00,WinterDesignDay
525,2106.5218276341675
526,2086.949275053001
527,48864.36062714565
562,5318.157539170869
563,5318.157539170869
564,42769.97981514781
599,3316.430513715739
600,3316.430513715739
601,25781.07139183676
636,5357.120277106006
637,5357.120277106006
638,42858.22986466434
673,3325.726289943724
674,3325.726289943724
675,25792.651886713153
710,0.0
711,0.0
712,0.0
1,BUFFALO.NIAGARA.INTL.AP_NY_USA ANN CLG .4% CONDNS DB=>MWB,  41.98, -87.92,  -6.00, 201.00
2,1, 7,21, 0, 1, 0.00,60.00,SummerDesignDay
525,-3980.7821116342984
526,-45062.21214192244
527,-3980.7821116342984
562,-2837.497364316407
563,-34765.56116555181
564,-2837.497364316407
599,-1635.6865626685906
600,-20782.20920947257
601,-1635.6865626685906
636,-2838.54208752235
637,-34678.79886703742
638,-2838.54208752235
673,-1736.5701062136068
674,-21038.904401852204
675,-1736.5701062136068
710,0.0
711,0.0
712,0.0
2,1, 7,21, 0, 2, 0.00,60.00,SummerDesignDay
525,-4221.472663108084
526,-43228.42261512236
527,-4221.472663108084
562,-3020.357752913437
563,-33156.771659504455
564,-3020.357752913437
599,-1792.2784990145267
600,-19875.849516489103
601,-1792.2784990145267
636,-2997.3771310781663
637,-33118.41401944467
638,-2997.3771310781663
673,-1893.2094833607946
674,-20088.33293439208
675,-1893.2094833607946
710,0.0
711,0.0
712,0.0
2,1, 7,21, 0, 3, 0.00,60.00,SummerDesignDay
525,-3467.5926371348396
526,-40157.20944302603
527,-3467.5926371348396
562,-2378.430960922526
563,-30733.27122086432
564,-2378.430960922526
599,-1372.758223993008
600,-18387.956079797703
601,-1372.758223993008
636,-2379.7736028356303
637,-30730.55598722272
638,-2379.7736028356303
673,-1437.5435115581975
674,-18510.670444530475
675,-1437.5435115581975
710,0.0
711,0.0
712,0.0
2,1, 7,21, 0, 4, 0.00,60.00,SummerDesignDay
525,-4186.941364627476
526,-43148.81836999913
527,-4186.941364627476
562,-2908.7241045144197
563,-32974.44346491794
564,-2908.7241045144197
599,-1721.4322736507913
600,-19747.228183437146
601,-1721.4322736507913
636,-2887.160525394183
637,-32924.232459475264
638,-2887.160525394183
673,-1794.2899418714785
674,-19903.297880184407
675,-1794.2899418714785
710,0.0
711,0.0
712,0.0
2,1, 7,21, 0, 5, 0.00,60.00,SummerDesignDay
525,-3440.01684930521
526,-40107.110578121465
527,-3440.01684930521
562,-2301.9255771394055
563,-30605.943635249598
564,-2301.9255771394055
599,-1348.3770566425983
600,-18339.982235481013
601,-1348.3770566425983
636,-2318.533715224323
637,-30621.807687309225
638,-2318.533715224323
673,-1375.0022280763897
674,-18397.55989213809
675,-1375.0022280763897
710,0.0
711,0.0
712,0.0
2,1, 7,21, 0, 6, 0.00,60.00,SummerDesignDay
525,-4614.751076840099
526,-52601.353379604836
527,-4614.751076840099
562,-3220.413596732416
563,-40146.66234132014
564,-3220.413596732416
599,-2479.5617171518193
600,-24988.364053899346
601,-2479.5617171518193
636,-3301.8820976523043
637,-40354.76245114065
638,-3301.8820976523043
673,-1954.4850561246785
674,-24111.313007974535
675,-1954.4850561246785
710,0.0
711,0.0
712,0.0
2,1, 7,21, 0, 7, 0.00,60.00,SummerDesignDay
525,-2854.186516150312
526,-64526.81156032381
527,-2854.186516150312
562,-2014.2855414569021
563,-49441.31247531192
564,-2014.2855414569021
599,-2082.2801916223248
600,-31354.831937911225
601,-2082.2801916223248
636,-2036.278242816449
637,-49507.20631619997
638,-2036.278242816449
673,-1186.2790087657934
674,-29535.09360585809
675,-1186.2790087657934
710,0.0
711,0.0
712,0.0
2,1, 7,21, 0, 8, 0.00,60.00,SummerDesignDay
525,-2486.7992671109205
526,-66433.19420300344
527,-2486.7992671109205
562,-1932.8276112012893
563,-51168.00437294854
564,-1932.8276112012893
599,-2413.9728680207586
600,-33272.48140394124
601,-2413.9728680207586
636,-1930.6641823884245
637,-51167.80139695042
638,-1930.6641823884245
673,-1173.5788550991244
674,-30581.861881576235
675,-1173.5788550991244
710,0.0
711,0.0
712,0.0
2,1, 7,21, 0, 9, 0.00,60.00,SummerDesignDay
525,-2519.757686678536
526,-71068.25085348146
527,-2519.757686678536
562,-2051.9869938369598
563,-54931.03253101663
564,-2051.9869938369598
599,-2610.690523490621
600,-35692.866993047275
601,-2610.690523490621
636,-2069.5367687155526
637,-54969.04173972531
638,-2069.5367687155526
673,-1236.1582839374682
674,-32794.05672525071
675,-1236.1582839374682
710,0.0
711,0.0
712,0.0
2,1, 7,21, 0,10, 0.00,60.00,SummerDesignDay
525,-2580.669801545249
526,-71268.17674417103
527,-2580.669801545249
562,-2219.011284202453
563,-55376.35946336858
564,-2219.011284202453
599,-2415.8999583146515
600,-35408.94159628549
601,-2415.8999583146515
636,-2208.877600130088
637,-55345.72937551321
638,-2208.877600130088
673,-1320.0713225636648
674,-33015.862691633374
675,-1320.0713225636648
710,0.0
711,0.0
712,0.0
2,1, 7,21, 0,11, 0.00,60.00,SummerDesignDay
525,-2645.397731314128
526,-53391.64717785603
527,-2645.397731314128
562,-2466.376687250958
563,-42300.3909907248
564,-2466.376687250958
599,-2022.2010852386063
600,-26552.42817063685
601,-2022.2010852386063
636,-2330.6939095666817
637,-41953.97344680701
638,-2330.6939095666817
673,-1403.8249999710072
674,-25102.04026667704
675,-1403.8249999710072
710,0.0
711,0.0
712,0.0
2,1, 7,21, 0,12, 0.00,60.00,SummerDesignDay
525,-2701.980546762502
526,-40008.76513102728
527,-2701.980546762502
562,-2711.400906600747
563,-32603.787419348908
564,-2711.400906600747
599,-1846.1251428546575
600,-20058.228332949828
601,-1846.1251428546575
636,-2434.958574881741
637,-31931.536559258344
638,-2434.958574881741
673,-1474.3659009979838
674,-19182.674763827035
675,-1474.3659009979838
710,0.0
711,0.0
712,0.0
2,1, 7,21, 0,13, 0.00,60.00,SummerDesignDay
525,-2748.6017660858633
526,-26595.92430849094
527,-2748.6017660858633
562,-2860.4008603738075
563,-22670.229778563807
564,-2860.4008603738075
599,-1801.5546614974671
600,-13855.493984885834
601,-1801.5546614974671
636,-2521.2007776242826
637,-21860.470033009693
638,-2521.2007776242826
673,-1520.1937027027332
674,-13198.29260953775
675,-1520.1937027027332
710,0.0
711,0.0
712,0.0
2,1, 7,21, 0,14, 0.00,60.00,SummerDesignDay
525,-2782.5940644782772
526,-24439.21936060271
527,-2782.5940644782772
562,-2879.910930901397
563,-21008.66034139207
564,-2879.910930901397
599,-1776.734620279096
600,-12782.607866829616
601,-1776.734620279096
636,-2584.0288257597763
637,-20297.40247069723
638,-2584.0288257597763
673,-1690.7790568835856
674,-12536.497562038452
675,-1690.7790568835856
710,0.0
711,0.0
712,0.0
2,1, 7,21, 0,15, 0.00,60.00,SummerDesignDay
525,-2809.1816621642406
526,-33547.49754298102
527,-2809.1816621642406
562,-2817.227801962252
563,-27716.144642120442
564,-2817.227801962252
599,-1748.2577501076823
600,-16785.79815659334
601,-1748.2577501076823
636,-2617.1712469951854
637,-27233.480758480324
638,-2617.1712469951854
673,-2199.656086777668
674,-17598.71874430485
675,-2199.656086777668
710,0.0
711,0.0
712,0.0
2,1, 7,21, 0,16, 0.00,60.00,SummerDesignDay
525,-2815.568944440663
526,-47126.768885912046
527,-2815.568944440663
562,-2746.3832041644214
563,-37832.73447206404
564,-2746.3832041644214
599,-1703.100529775271
600,-22785.383249701303
601,-1703.100529775271
636,-2585.403086393542
637,-37460.296603289695
638,-2585.403086393542
673,-2683.6516931919737
674,-24591.963304701014
675,-2683.6516931919737
710,0.0
711,0.0
712,0.0
2,1, 7,21, 0,17, 0.00,60.00,SummerDesignDay
525,-2792.261676447191
526,-56117.49029248065
527,-2792.261676447191
562,-2659.8668675232125
563,-44497.606370434245
564,-2659.8668675232125
599,-1647.8883561164637
600,-26731.8253456886
601,-1647.8883561164637
636,-2526.6458660569947
637,-44185.05744521498
638,-2526.6458660569947
673,-2874.8283489853493
674,-29017.161668302506
675,-2874.8283489853493
710,0.0
711,0.0
712,0.0
2,1, 7,21, 0,18, 0.00,60.00,SummerDesignDay
525,-2763.5185692976424
526,-65069.0381919485
527,-2763.5185692976424
562,-2553.996419613975
563,-51109.95219695047
564,-2553.996419613975
599,-1557.4201484508733
600,-30597.13074051477
601,-1557.4201484508733
636,-2461.8719424609094
637,-50889.58534341619
638,-2461.8719424609094
673,-2746.111291896641
674,-32899.542270968224
675,-2746.111291896641
710,0.0
711,0.0
712,0.0
2,1, 7,21, 0,19, 0.00,60.00,SummerDesignDay
525,-2713.3040228670566
526,-64930.7452257238
527,-2713.3040228670566
562,-2399.8275008459873
563,-50746.01448028208
564,-2399.8275008459873
599,-1460.8477705932648
600,-30365.50195544028
601,-1460.8477705932648
636,-2413.3550991427437
637,-50786.263410786494
638,-2413.3550991427437
673,-2321.6286760486437
674,-32187.94985377789
675,-2321.6286760486437
710,0.0
711,0.0
712,0.0
2,1, 7,21, 0,20, 0.00,60.00,SummerDesignDay
525,-5035.119129522104
526,-71320.80557645312
527,-5035.119129522104
562,-3970.476509427919
563,-55310.12692454665
564,-3970.476509427919
599,-2274.566805513536
600,-32963.09005296451
601,-2274.566805513536
636,-4054.39898769329
637,-55371.356089459725
638,-4054.39898769329
673,-2965.408090356764
674,-34136.314787196745
675,-2965.408090356764
710,0.0
711,0.0
712,0.0
2,1, 7,21, 0,21, 0.00,60.00,SummerDesignDay
525,-5047.691618700198
526,-57837.00082011603
527,-5047.691618700198
562,-3965.241380029563
563,-44907.762258672294
564,-3965.241380029563
599,-2377.470775719398
600,-26895.860118351575
601,-2377.470775719398
636,-3982.7374168577103
637,-44909.84824635982
638,-3982.7374168577103
673,-2805.5381346013396
674,-27644.150847664565
675,-2805.5381346013396
710,0.0
711,0.0
712,0.0
2,1, 7,21, 0,22, 0.00,60.00,SummerDesignDay
525,-3914.625128436188
526,-45226.78186325778
527,-3914.625128436188
562,-2899.6405521633737
563,-34996.368459418416
564,-2899.6405521633737
599,-1684.5293363132487
600,-20939.97005382454
601,-1684.5293363132487
636,-2909.9272168894336
637,-34991.71913472551
638,-2909.9272168894336
673,-1875.7499389453626
674,-21241.592663016218
675,-1875.7499389453626
710,0.0
711,0.0
712,0.0
2,1, 7,21, 0,23, 0.00,60.00,SummerDesignDay
525,-4387.565768260576
526,-43520.34761896561
527,-4387.565768260576
562,-3299.986274175671
563,-33745.053627840454
564,-3299.986274175671
599,-1973.6487835179987
600,-20252.27735889541
601,-1973.6487835179987
636,-3282.7340185690177
637,-33693.99076249137
638,-3282.7340185690177
673,-2171.0581575222645
674,-20642.771897737282
675,-2171.0581575222645
710,0.0
711,0.0
712,0.0
2,1, 7,21, 0,24, 0.00,60.00,SummerDesignDay
525,-3615.3619098072654
526,-40372.85789701231
527,-3615.3619098072654
562,-2581.7892832572065
563,-31116.643648245732
564,-2581.7892832572065
599,-1491.1116747700687
600,-18620.814931054538
601,-1491.1116747700687
636,-2586.309672568326
637,-31096.18366398463
638,-2586.309672568326
673,-1604.0440552111447
674,-18834.13687678771
675,-1604.0440552111447
710,0.0
711,0.0
712,0.0
1,Chicago Ohare Intl Ap IL USA TMY3 WMO#=725300,  41.98, -87.92,  -6.00, 201.00
2,1, 1, 1, 0, 1, 0.00,60.00,Holiday
525,0.0
526,-17928.504263368603
527,50072.063266639016
562,0.0
563,-6858.048364284509
564,46186.390343420346
599,0.0
600,-2867.958478654911
601,28940.565037051918
636,0.0
637,-4197.112408754588
638,49263.61368132066
673,0.0
674,-2572.281086165952
675,29215.844083207416
710,0.0
711,0.0
712,0.0
2,1, 1, 1, 0, 2, 0.00,60.00,Holiday
525,0.0
526,-18676.743905019113
527,56760.03485930652
562,0.0
563,-6531.239231919692
564,52847.93596635375
599,0.0
600,-2629.555763983385
601,33017.980884504206
636,0.0
637,-3756.2192368322885
638,56251.24323721477
673,0.0
674,-2311.3716846986963
675,33350.5625698612
710,0.0
711,0.0
712,0.0
2,1, 1, 1, 0, 3, 0.00,60.00,Holiday
525,0.0
526,-7810.669175761999
527,25302.03755631846
562,0.0
563,-2662.8391593807232
564,24745.805049536564
599,0.0
600,-1056.6253675033047
601,15539.110730750937
636,0.0
637,-1503.2324137953728
638,26323.543523723944
673,0.0
674,-915.7668503599974
675,15687.924597073405
710,0.0
711,0.0
712,0.0
2,1, 1, 1, 0, 4, 0.00,60.00,Holiday
525,0.0
526,-7551.327151639131
527,25601.13773761381
562,0.0
563,-2373.3716386194296
564,25186.316379792406
599,0.0
600,-909.8362850434132
601,15763.814154223515
636,0.0
637,-1297.5479952096641
638,26638.369298643072
673,0.0
674,-775.5201990884834
675,15907.947748426324
710,0.0
711,0.0
712,0.0
2,1, 1, 1, 0, 5, 0.00,60.00,Holiday
525,0.0
526,-7350.594795423185
527,25876.36559014788
562,0.0
563,-2046.5152425959684
564,25676.680068089216
599,0.0
600,-736.4090412252086
601,16040.215583137948
636,0.0
637,-1053.4425555752193
638,27040.223578541514
673,0.0
674,-609.138121190607
675,16180.213574892188
710,0.0
711,0.0
712,0.0
2,1, 1, 1, 0, 6, 0.00,60.00,Holiday
525,0.0
526,-7182.6150499691585
527,26131.898113714502
562,0.0
563,-1806.1024605678206
564,25958.723759653873
599,0.0
600,-614.9754288690468
601,16186.530292523004
636,0.0
637,-891.2695101367875
638,27233.89897612111
673,0.0
674,-495.6680759084581
675,16318.106142962066
710,0.0
711,0.0
712,0.0
2,1, 1, 1, 0, 7, 0.00,60.00,Holiday
525,0.0
526,-7041.315988328472
527,26373.122147907477
562,0.0
563,-1534.2508617083502
564,26297.9573641154
599,0.0
600,-468.3895282699347
601,16377.921165245649
636,0.0
637,-692.4636591419834
638,27498.076356287038
673,0.0
674,-359.0427064447752
675,16497.944555358114
710,0.0
711,0.0
712,0.0
2,1, 1, 1, 0, 8, 0.00,60.00,Holiday
525,0.0
526,-6916.379996626997
527,26594.863433694863
562,0.0
563,-1484.2893255262413
564,26417.43406939373
599,0.0
600,-492.7367117637659
601,16397.8945614774
636,0.0
637,-573.0124472295605
638,27649.75292861945
673,0.0
674,-273.73181945368017
675,16605.4417522303
710,0.0
711,0.0
712,0.0
2,1, 1, 1, 0, 9, 0.00,60.00,Holiday
525,0.0
526,-13350.061396614772
527,51049.22397577938
562,0.0
563,-5183.034086086158
564,46107.408972922676
599,0.0
600,-2410.138890848279
601,28284.77914594985
636,0.0
637,-1261.5721100508497
638,50536.284014124445
673,0.0
674,-621.376172490293
675,30261.638616975895
710,0.0
711,0.0
712,0.0
2,1, 1, 1, 0,10, 0.00,60.00,Holiday
525,0.0
526,-19951.765999964755
527,71477.35089694269
562,0.0
563,-12355.06916459507
564,58661.17927725499
599,0.0
600,-4844.865011714514
601,37672.93347463634
636,0.0
637,-1820.9616828723981
638,70707.52412721032
673,0.0
674,-962.6692306320033
675,42250.40874998111
710,0.0
711,0.0
712,0.0
2,1, 1, 1, 0,11, 0.00,60.00,Holiday
525,0.0
526,-25035.652899439592
527,74311.16374998629
562,0.0
563,-19322.902617386342
564,57381.734710469675
599,0.0
600,-5110.304232817437
601,40455.04372748139
636,0.0
637,-2212.835599388133
638,75963.2093522672
673,0.0
674,-1385.5894097113835
675,45151.4528448719
710,0.0
711,0.0
712,0.0
2,1, 1, 1, 0,12, 0.00,60.00,Holiday
525,0.0
526,-19345.82971459092
527,53130.90523392302
562,0.0
563,-16573.925601573555
564,38493.398792283144
599,0.0
600,-3583.9280491218706
601,29725.694402202327
636,0.0
637,-2425.8964036326674
638,54508.56349921078
673,0.0
674,-1663.5641132308149
675,32202.116051603938
710,0.0
711,0.0
712,0.0
2,1, 1, 1, 0,13, 0.00,60.00,Holiday
525,0.0
526,-9554.870869961162
527,24617.392177828926
562,0.0
563,-6854.706524146149
564,17675.397883198344
599,0.0
600,-1807.1826827379257
601,13752.972532963677
636,0.0
637,-1584.3256533543972
638,25336.88492791474
673,0.0
674,-1076.4765885508787
675,14872.727468059014
710,0.0
711,0.0
712,0.0
2,1, 1, 1, 0,14, 0.00,60.00,Holiday
525,0.0
526,-9842.178243415981
527,24511.391987451276
562,0.0
563,-6518.022173801021
564,18901.401792326385
599,0.0
600,-1911.1866066127466
601,13460.224264178758
636,0.0
637,-1986.5555210485127
638,24607.68153385405
673,0.0
674,-1356.4993096669866
675,14328.85897286517
710,0.0
711,0.0
712,0.0
2,1, 1, 1, 0,15, 0.00,60.00,Holiday
525,0.0
526,-10011.080761859332
527,24431.91426793791
562,0.0
563,-6188.5241200273485
564,18707.06056910456
599,0.0
600,-1993.4277497734122
601,13212.938546178868
636,0.0
637,-2280.6512229470077
638,23860.03407576062
673,0.0
674,-1654.2021663933258
675,13698.211641200034
710,0.0
711,0.0
712,0.0
2,1, 1, 1, 0,16, 0.00,60.00,Holiday
525,0.0
526,-16845.9637200467
527,40621.68969357896
562,0.0
563,-9823.69925735324
564,31770.567269308875
599,0.0
600,-3480.627791996925
601,22076.210568657076
636,0.0
637,-4203.484622661716
638,38973.01228547784
673,0.0
674,-3132.754396280124
675,22946.86997855277
710,0.0
711,0.0
712,0.0
2,1, 1, 1, 0,17, 0.00,60.00,Holiday
525,0.0
526,-16873.10979047305
527,40626.903796725135
562,0.0
563,-9417.953153586514
564,32374.80946333612
599,0.0
600,-3699.0065621799663
601,22345.420112078235
636,0.0
637,-4696.426556769176
638,39138.509348125335
673,0.0
674,-3329.2055630710342
675,23066.707749753026
710,0.0
711,0.0
712,0.0
2,1, 1, 1, 0,18, 0.00,60.00,Holiday
525,0.0
526,-13448.101838701436
527,32561.9164473581
562,0.0
563,-7098.5362544704085
564,25693.132706511282
599,0.0
600,-3028.0699517909684
601,18062.36565913317
636,0.0
637,-3968.0562728335717
638,31363.997070042988
673,0.0
674,-2726.4747386585036
675,18616.385709339418
710,0.0
711,0.0
712,0.0
2,1, 1, 1, 0,19, 0.00,60.00,Holiday
525,0.0
526,-10031.831323088312
527,24474.84141361029
562,0.0
563,-4971.159457364579
564,20413.980540965975
599,0.0
600,-2068.7311916751314
601,13524.465524990263
636,0.0
637,-2767.426267292569
638,23383.220766566123
673,0.0
674,-1885.4654485289132
675,14046.864508389093
710,0.0
711,0.0
712,0.0
2,1, 1, 1, 0,20, 0.00,60.00,Holiday
525,0.0
526,-9969.000012627117
527,24518.171014590276
562,0.0
563,-4599.213010926734
564,21597.70511493953
599,0.0
600,-1843.2253889252104
601,13808.410189788128
636,0.0
637,-2475.226421953186
638,23537.404253840305
673,0.0
674,-1599.2569389887256
675,13642.753132489548
710,0.0
711,0.0
712,0.0
2,1, 1, 1, 0,21, 0.00,60.00,Holiday
525,0.0
526,-9905.741022081613
527,24541.985511714865
562,0.0
563,-4512.676430443601
564,21689.654320702804
599,0.0
600,-1856.756905040492
601,13671.606708693182
636,0.0
637,-2563.999713479378
638,23279.954985136686
673,0.0
674,-1666.191148347166
675,13806.39604183382
710,0.0
711,0.0
712,0.0
2,1, 1, 1, 0,22, 0.00,60.00,Holiday
525,0.0
526,-9871.466155058657
527,24548.475498829404
562,0.0
563,-4364.39860934408
564,21697.42169863143
599,0.0
600,-1851.453047815201
601,13672.40794466822
636,0.0
637,-2623.5804163192483
638,23280.72290303696
673,0.0
674,-1696.7569216270542
675,13984.996686518518
710,0.0
711,0.0
712,0.0
2,1, 1, 1, 0,23, 0.00,60.00,Holiday
525,0.0
526,-9844.008419267013
527,24556.68889520862
562,0.0
563,-4021.8188411458245
564,22413.167454674494
599,0.0
600,-1683.9458763385057
601,14095.858110568997
636,0.0
637,-2418.8103816707585
638,23981.901766891617
673,0.0
674,-1510.4893885792771
675,14169.526787280898
710,0.0
711,0.0
712,0.0
2,1, 1, 1, 0,24, 0.00,60.00,Holiday
525,0.0