Program Version,EnergyPlus, Version 8.6.0-198c6a3cff, YMD=2019.03.03 18:58
1,5,Environment Title[],Latitude[deg],Longitude[deg],Time Zone[],Elevation[m]
2,6,Day of Simulation[],Month[],Day of Month[],DST Indicator[1=yes 0=no],Hour[],StartMinute[],EndMinute[],DayType
3,3,Cumulative Day of Simulation[],Month[],Day of Month[],DST Indicator[1=yes 0=no],DayType  ! When Daily Meters Requested
4,2,Cumulative Days of Simulation[],Month[]  ! When Monthly Meters Requested
5,1,Cumulative Days of Simulation[] ! When Run Period Meters Requested
31,1,Electricity:Facility [J] !Hourly
831,1,ElectricityNet:Facility [J] !Hourly
1043,1,Gas:Facility [J] !Hourly
End of Data Dictionary
1,BUFFALO.NIAGARA.INTL.AP_NY_USA ANN HTG 99.6% CONDNS DB,  41.98, -87.92,  -6.00, 201.00
2,1, 1,21, 0, 1, 0.00,60.00,WinterDesignDay
31,7934786.542088402
831,7934786.542088402
1043,32044338.87588884
2,1, 1,21, 0, 2, 0.00,60.00,WinterDesignDay
31,7233860.034248578
831,7233860.034248578
1043,27027376.070512318
2,1, 1,21, 0, 3, 0.00,60.00,WinterDesignDay
31,8019418.178977363
831,8019418.178977363
1043,31479879.91977418
2,1, 1,21, 0, 4, 0.00,60.00,WinterDesignDay
31,7233860.034248578
831,7233860.034248578
1043,27067853.263269769
2,1, 1,21, 0, 5, 0.00,60.00,WinterDesignDay
31,8019418.178977363
831,8019418.178977363
1043,31502964.017359068
2,1, 1,21, 0, 6, 0.00,60.00,WinterDesignDay
31,7233860.034248578
831,7233860.034248578
1043,27078089.242925478
2,1, 1,21, 0, 7, 0.00,60.00,WinterDesignDay
31,9211018.178977363
831,9211018.178977363
1043,31509327.55416252
2,1, 1,21, 0, 8, 0.00,60.00,WinterDesignDay
31,6426907.3619620199
831,6426907.3619620199
1043,23425676.61990034
2,1, 1,21, 0, 9, 0.00,60.00,WinterDesignDay
31,6695332.436289306
831,6695332.436289306
1043,25868797.84937516
2,1, 1,21, 0,10, 0.00,60.00,WinterDesignDay
31,6074522.56881163
831,6074522.56881163
1043,21524144.2121046
2,1, 1,21, 0,11, 0.00,60.00,WinterDesignDay
31,6711063.53221085
831,6711063.53221085
1043,23930128.824583655
2,1, 1,21, 0,12, 0.00,60.00,WinterDesignDay
31,6075847.386980898
831,6075847.386980898
1043,21512855.829388236
2,1, 1,21, 0,13, 0.00,60.00,WinterDesignDay
31,6713772.155866205
831,6713772.155866205
1043,23969806.35237609
2,1, 1,21, 0,14, 0.00,60.00,WinterDesignDay
31,6077072.43394422
831,6077072.43394422
1043,21538007.85803504
2,1, 1,21, 0,15, 0.00,60.00,WinterDesignDay
31,6715896.449215458
831,6715896.449215458
1043,23922215.676163936
2,1, 1,21, 0,16, 0.00,60.00,WinterDesignDay
31,6077987.045286852
831,6077987.045286852
1043,21482817.407743697
2,1, 1,21, 0,17, 0.00,60.00,WinterDesignDay
31,7451034.061539188
831,7451034.061539188
1043,23930840.968915825
2,1, 1,21, 0,18, 0.00,60.00,WinterDesignDay
31,8279336.518330999
831,8279336.518330998
1043,21468905.172745378
2,1, 1,21, 0,19, 0.00,60.00,WinterDesignDay
31,9196912.906224814
831,9196912.906224812
1043,30578860.288092618
2,1, 1,21, 0,20, 0.00,60.00,WinterDesignDay
31,7623560.034310855
831,7623560.034310854
1043,26961311.548063466
2,1, 1,21, 0,21, 0.00,60.00,WinterDesignDay
31,8409118.17903964
831,8409118.179039637
1043,31463259.08492311
2,1, 1,21, 0,22, 0.00,60.00,WinterDesignDay
31,7623560.034310855
831,7623560.034310854
1043,27072598.67517181
2,1, 1,21, 0,23, 0.00,60.00,WinterDesignDay
31,8409118.178977363
831,8409118.178977363
1043,31497954.683942506
2,1, 1,21, 0,24, 0.00,60.00,WinterDesignDay
31,7623560.034248578
831,7623560.034248577
1043,27078821.25396988
1,BUFFALO.NIAGARA.INTL.AP_NY_USA ANN CLG .4% CONDNS DB=>MWB,  41.98, -87.92,  -6.00, 201.00
2,1, 7,21, 0, 1, 0.00,60.00,SummerDesignDay
31,39933045.03799046
831,39933045.03799045
1043,0.0
2,1, 7,21, 0, 2, 0.00,60.00,SummerDesignDay
31,38614527.954225298
831,38614527.954225298
1043,0.0
2,1, 7,21, 0, 3, 0.00,60.00,SummerDesignDay
31,39892111.41664027
831,39892111.41664027
1043,0.0
2,1, 7,21, 0, 4, 0.00,60.00,SummerDesignDay
31,38380545.72895743
831,38380545.72895742
1043,0.0
2,1, 7,21, 0, 5, 0.00,60.00,SummerDesignDay
31,39208224.99881638
831,39208224.99881638
1043,0.0
2,1, 7,21, 0, 6, 0.00,60.00,SummerDesignDay
31,36853378.75138787
831,36853378.751387868
1043,0.0
2,1, 7,21, 0, 7, 0.00,60.00,SummerDesignDay
31,43275690.996117759
831,43275690.996117759
1043,0.0
2,1, 7,21, 0, 8, 0.00,60.00,SummerDesignDay
31,43681156.063671607
831,43681156.06367161
1043,0.0
2,1, 7,21, 0, 9, 0.00,60.00,SummerDesignDay
31,44947564.103900518
831,44947564.10390052
1043,0.0
2,1, 7,21, 0,10, 0.00,60.00,SummerDesignDay
31,45770543.45337309
831,45770543.45337308
1043,0.0
2,1, 7,21, 0,11, 0.00,60.00,SummerDesignDay
31,46450338.066403578
831,46450338.066403578
1043,0.0
2,1, 7,21, 0,12, 0.00,60.00,SummerDesignDay
31,47121420.67871161
831,47121420.678711619
1043,0.0
2,1, 7,21, 0,13, 0.00,60.00,SummerDesignDay
31,47731594.96447629
831,47731594.96447629
1043,0.0
2,1, 7,21, 0,14, 0.00,60.00,SummerDesignDay
31,48224244.31601614
831,48224244.31601613
1043,0.0
2,1, 7,21, 0,15, 0.00,60.00,SummerDesignDay
31,48728248.337501619
831,48728248.337501619
1043,0.0
2,1, 7,21, 0,16, 0.00,60.00,SummerDesignDay
31,48635085.39007825
831,48635085.39007825
1043,0.0
2,1, 7,21, 0,17, 0.00,60.00,SummerDesignDay
31,48459447.55293122
831,48459447.55293122
1043,0.0
2,1, 7,21, 0,18, 0.00,60.00,SummerDesignDay
31,48122405.2008639
831,48122405.2008639
1043,0.0
2,1, 7,21, 0,19, 0.00,60.00,SummerDesignDay
31,48253017.25050938
831,48253017.250509377
1043,0.0
2,1, 7,21, 0,20, 0.00,60.00,SummerDesignDay
31,43631341.55729296
831,43631341.55729295
1043,0.0
2,1, 7,21, 0,21, 0.00,60.00,SummerDesignDay
31,41186990.06014483
831,41186990.06014483
1043,0.0
2,1, 7,21, 0,22, 0.00,60.00,SummerDesignDay
31,42396018.70042222
831,42396018.70042222
1043,0.0
2,1, 7,21, 0,23, 0.00,60.00,SummerDesignDay
31,39717874.40770194
831,39717874.40770194
1043,0.0
2,1, 7,21, 0,24, 0.00,60.00,SummerDesignDay
31,40957968.785064619
831,40957968.78506461
1043,0.0
1,Chicago Ohare Intl Ap IL USA TMY3 WMO#=725300,  41.98, -87.92,  -6.00, 201.00
2,1, 1, 1, 0, 1, 0.00,60.00,Holiday
31,6404338.596677196
831,6404338.596677196
1043,0.0
2,1, 1, 1, 0, 2, 0.00,60.00,Holiday
31,6404338.596677196
831,6404338.596677196
1043,0.0
2,1, 1, 1, 0, 3, 0.00,60.00,Holiday
31,6404338.596677196
831,6404338.596677196
1043,0.0
2,1, 1, 1, 0, 4, 0.00,60.00,Holiday
31,6404338.596677196
831,6404338.596677196
1043,0.0
2,1, 1, 1, 0, 5, 0.00,60.00,Holiday
31,6404338.596677196
831,6404338.596677196
1043,0.0
2,1, 1, 1, 0, 6, 0.00,60.00,Holiday
31,6404338.596677196
831,6404338.596677196
1043,0.0
2,1, 1, 1, 0, 7, 0.00,60.00,Holiday
31,7595938.596677196
831,7595938.596677195
1043,0.0
2,1, 1, 1, 0, 8, 0.00,60.00,Holiday
31,6128818.596677196
831,6128818.596677195
1043,0.0
2,1, 1, 1, 0, 9, 0.00,60.00,Holiday
31,5395258.596677196
831,5395258.596677196
1043,0.0
2,1, 1, 1, 0,10, 0.00,60.00,Holiday
31,5395258.596677196
831,5395258.596677196
1043,0.0
2,1, 1, 1, 0,11, 0.00,60.00,Holiday
31,5395258.596677196
831,5395258.596677196
1043,0.0
2,1, 1, 1, 0,12, 0.00,60.00,Holiday
31,5395258.596677196
831,5395258.596677196
1043,0.0
2,1, 1, 1, 0,13, 0.00,60.00,Holiday
31,5395258.596677196
831,5395258.596677196
1043,0.0
2,1, 1, 1, 0,14, 0.00,60.00,Holiday
31,5395258.596677196
831,5395258.596677196
1043,0.0
2,1, 1, 1, 0,15, 0.00,60.00,Holiday
31,5395258.596677196
831,5395258.596677196
1043,0.0
2,1, 1, 1, 0,16, 0.00,60.00,Holiday
31,5395258.596677196
831,5395258.596677196
1043,0.0
2,1, 1, 1, 0,17, 0.00,60.00,Holiday
31,6862378.596677196
831,6862378.596677195
1043,0.0
2,1, 1, 1, 0,18, 0.00,60.00,Holiday
31,7595938.596677196
831,7595938.596677195
1043,0.0
2,1, 1, 1, 0,19, 0.00,60.00,Holiday
31,7595938.596677196
831,7595938.596677195
1043,0.0
2,1, 1, 1, 0,20, 0.00,60.00,Holiday
31,6794038.596677196
831,6794038.596677196
1043,0.0
2,1, 1, 1, 0,21, 0.00,60.00,Holiday
31,6794038.596677196
831,6794038.596677196
1043,0.0
2,1, 1, 1, 0,22, 0.00,60.00,Holiday
31,6794038.596677196
831,6794038.596677196
1043,0.0
2,1, 1, 1, 0,23, 0.00,60.00,Holiday
31,6794038.596677196
831,6794038.596677196
1043,0.0
2,1, 1, 1, 0,24, 0.00,60.00,Holiday
31,6794038.596677196
831,6794038.596677196
1043,0.0
2,2, 1, 2, 0, 1, 0.00,60.00,Monday
31,9469604.825749658
831,9469604.825749658
1043,0.0
2,2, 1, 2, 0, 2, 0.00,60.00,Monday
31,9469604.825749658
831,9469604.825749658
1043,0.0
2,2, 1, 2, 0, 3, 0.00,60.00,Monday
31,9469604.825749658
831,9469604.825749658
1043,0.0
2,2, 1, 2, 0, 4, 0.00,60.00,Monday
31,9469604.825749658
831,9469604.825749658
1043,0.0
2,2, 1, 2, 0, 5, 0.00,60.00,Monday
31,9469604.825749658
831,9469604.825749658
1043,0.0
2,2, 1, 2, 0, 6, 0.00,60.00,Monday
31,9469604.825749658
831,9469604.825749658
1043,0.0
2,2, 1, 2, 0, 7, 0.00,60.00,Monday
31,34365834.545215409
831,34365834.5452154
1043,12885903.117381916
2,2, 1, 2, 0, 8, 0.00,60.00,Monday
31,38210084.12159934
831,38210084.121599327
1043,10956649.723987697
2,2, 1, 2, 0, 9, 0.00,60.00,Monday
31,41284334.53220093
831,41284334.53220093
1043,0.0
2,2, 1, 2, 0,10, 0.00,60.00,Monday
31,37592702.50273355
831,37592702.50273355
1043,0.0
2,2, 1, 2, 0,11, 0.00,60.00,Monday
31,34963464.956722769
831,34963464.956722769
1043,0.0
2,2, 1, 2, 0,12, 0.00,60.00,Monday
31,32369072.94707524
831,32369072.947075245
1043,0.0
2,2, 1, 2, 0,13, 0.00,60.00,Monday
31,33022571.788471864
831,33022571.788471864
1043,0.0
2,2, 1, 2, 0,14, 0.00,60.00,Monday
31,32304392.093477537
831,32304392.093477534
1043,0.0
2,2, 1, 2, 0,15, 0.00,60.00,Monday
31,33200387.66606084
831,33200387.66606083
1043,0.0
2,2, 1, 2, 0,16, 0.00,60.00,Monday
31,33700962.59481123
831,33700962.59481124
1043,0.0
2,2, 1, 2, 0,17, 0.00,60.00,Monday
31,35526932.85527935
831,35526932.855279359
1043,0.0
2,2, 1, 2, 0,18, 0.00,60.00,Monday
31,36050186.28932112
831,36050186.28932111
1043,1893177.1263069662
2,2, 1, 2, 0,19, 0.00,60.00,Monday
31,31130865.34072385
831,31130865.340723847
1043,0.0
2,2, 1, 2, 0,20, 0.00,60.00,Monday
31,11853154.258345897
831,11853154.258345895
1043,0.0
2,2, 1, 2, 0,21, 0.00,60.00,Monday
31,10637784.395628443
831,10637784.395628443
1043,0.0
2,2, 1, 2, 0,22, 0.00,60.00,Monday
31,10637784.395628443
831,10637784.395628443
1043,0.0
2,2, 1, 2, 0,23, 0.00,60.00,Monday
31,9543951.519120457
831,9543951.519120455
1043,0.0
2,2, 1, 2, 0,24, 0.00,60.00,Monday
31,7197449.08321209
831,7197449.08321209
1043,0.0
2,3, 1, 3, 0, 1, 0.00,60.00,Tuesday
31,9469604.825749658
831,9469604.825749658
1043,0.0
2,3, 1, 3, 0, 2, 0.00,60.00,Tuesday
31,9469604.825749658
831,9469604.825749658
1043,0.0
2,3, 1, 3, 0, 3, 0.00,60.00,Tuesday
31,9469604.825749658
831,9469604.825749658
1043,0.0
2,3, 1, 3, 0, 4, 0.00,60.00,Tuesday
31,9469604.825749658
831,9469604.825749658
1043,0.0
2,3, 1, 3, 0, 5, 0.00,60.00,Tuesday
31,9469604.825749658
831,9469604.825749658
1043,0.0
2,3, 1, 3, 0, 6, 0.00,60.00,Tuesday
31,9469604.825749658
831,9469604.825749658
1043,0.0
2,3, 1, 3, 0, 7, 0.00,60.00,Tuesday
31,30903436.205245764
831,30903436.205245753
1043,6319420.91987244
2,3, 1, 3, 0, 8, 0.00,60.00,Tuesday
31,37190970.66086505
831,37190970.660865049
1043,10696991.766368285
2,3, 1, 3, 0, 9, 0.00,60.00,Tuesday
31,40486191.73507793
831,40486191.73507793
1043,0.0
2,3, 1, 3, 0,10, 0.00,60.00,Tuesday
31,37992286.30586644
831,37992286.30586644
1043,0.0
2,3, 1, 3, 0,11, 0.00,60.00,Tuesday
31,36119832.73021418
831,36119832.73021418
1043,0.0
2,3, 1, 3, 0,12, 0.00,60.00,Tuesday
31,34580353.65736881
831,34580353.6573688
1043,0.0
2,3, 1, 3, 0,13, 0.00,60.00,Tuesday
31,36793036.63675439
831,36793036.6367544
1043,1734894.115562702
2,3, 1, 3, 0,14, 0.00,60.00,Tuesday
31,33028056.33469104
831,33028056.334691045
1043,0.0
2,3, 1, 3, 0,15, 0.00,60.00,Tuesday
31,32848786.29115366
831,32848786.29115366
1043,0.0
2,3, 1, 3, 0,16, 0.00,60.00,Tuesday
31,33464915.032861886
831,33464915.03286188
1043,0.0
2,3, 1, 3, 0,17, 0.00,60.00,Tuesday
31,35840329.38089743
831,35840329.38089744
1043,0.0
2,3, 1, 3, 0,18, 0.00,60.00,Tuesday
31,35436027.481437768
831,35436027.48143775
1043,4064779.642333161
2,3, 1, 3, 0,19, 0.00,60.00,Tuesday
31,31029983.380861544
831,31029983.380861537
1043,0.0
2,3, 1, 3, 0,20, 0.00,60.00,Tuesday
31,11853154.258345897
831,11853154.258345895
1043,0.0
2,3, 1, 3, 0,21, 0.00,60.00,Tuesday
31,10637784.395628443
831,10637784.395628443
1043,0.0
2,3, 1, 3, 0,22, 0.00,60.00,Tuesday
31,10637784.395628443
831,10637784.395628443
1043,0.0
2,3, 1, 3, 0,23, 0.00,60.00,Tuesday
31,9543951.519120457
831,9543951.519120455
1043,0.0
2,3, 1, 3, 0,24, 0.00,60.00,Tuesday
31,7197449.08321209
831,7197449.08321209
1043,0.0
2,4, 1, 4, 0, 1, 0.00,60.00,Wednesday
31,9469604.825749658
831,9469604.825749658
1043,0.0
2,4, 1, 4, 0, 2, 0.00,60.00,Wednesday
31,9469604.825749658
831,9469604.825749658
1043,0.0
2,4, 1, 4, 0, 3, 0.00,60.00,Wednesday
31,9469604.825749658
831,9469604.825749658
1043,0.0
2,4, 1, 4, 0, 4, 0.00,60.00,Wednesday
31,9469604.825749658
831,9469604.825749658
1043,0.0
2,4, 1, 4, 0, 5, 0.00,60.00,Wednesday
31,9469604.825749658
831,9469604.825749658
1043,0.0
2,4, 1, 4, 0, 6, 0.00,60.00,Wednesday
31,9469604.825749658
831,9469604.825749658
1043,0.0
2,4, 1, 4, 0, 7, 0.00,60.00,Wednesday
31,31598737.58464547
831,31598737.584645474
1043,7206802.492796975
2,4, 1, 4, 0, 8, 0.00,60.00,Wednesday
31,38247688.595168519
831,38247688.595168519
1043,10795913.437294618
2,4, 1, 4, 0, 9, 0.00,60.00,Wednesday
31,40294446.891769718
831,40294446.891769718
1043,0.0
2,4, 1, 4, 0,10, 0.00,60.00,Wednesday
31,36974449.686157669
831,36974449.686157669
1043,0.0
2,4, 1, 4, 0,11, 0.00,60.00,Wednesday
31,34988770.71525498
831,34988770.71525497
1043,0.0
2,4, 1, 4, 0,12, 0.00,60.00,Wednesday
31,33671169.65346261
831,33671169.65346261
1043,0.0
2,4, 1, 4, 0,13, 0.00,60.00,Wednesday
31,36135290.58250579
831,36135290.58250579
1043,2172.8331161688743
2,4, 1, 4, 0,14, 0.00,60.00,Wednesday
31,32152885.82666699
831,32152885.826666997
1043,0.0
2,4, 1, 4, 0,15, 0.00,60.00,Wednesday
31,32450079.757934434
831,32450079.75793443
1043,0.0
2,4, 1, 4, 0,16, 0.00,60.00,Wednesday
31,33487876.28736146
831,33487876.287361467
1043,0.0
2,4, 1, 4, 0,17, 0.00,60.00,Wednesday
31,36172555.33436733
831,36172555.33436733
1043,0.0
2,4, 1, 4, 0,18, 0.00,60.00,Wednesday
31,36276605.13614872
831,36276605.13614872
1043,5406336.622488015
2,4, 1, 4, 0,19, 0.00,60.00,Wednesday
31,33279276.679456515
831,33279276.679456504
1043,0.0
2,4, 1, 4, 0,20, 0.00,60.00,Wednesday
31,11853154.258345897
831,11853154.258345895
1043,0.0
2,4, 1, 4, 0,21, 0.00,60.00,Wednesday
31,10637784.395628443
831,10637784.395628443
1043,0.0
2,4, 1, 4, 0,22, 0.00,60.00,Wednesday
31,10637784.395628443
831,10637784.395628443
1043,0.0
2,4, 1, 4, 0,23, 0.00,60.00,Wednesday
31,9543951.519120457
831,9543951.519120455
1043,0.0
2,4, 1, 4, 0,24, 0.00,60.00,Wednesday
31,7197449.08321209
831,7197449.08321209
1043,0.0
2,5, 1, 5, 0, 1, 0.00,60.00,Thursday
31,9469604.825749658
831,9469604.825749658
1043,0.0
2,5, 1, 5, 0, 2, 0.00,60.00,Thursday
31,9469604.825749658
831,9469604.825749658
1043,0.0
2,5, 1, 5, 0, 3, 0.00,60.00,Thursday
31,9469604.825749658
831,9469604.825749658
1043,0.0
2,5, 1, 5, 0, 4, 0.00,60.00,Thursday
31,9469604.825749658
831,9469604.825749658
1043,0.0
2,5, 1, 5, 0, 5, 0.00,60.00,Thursday
31,9469604.825749658
831,9469604.825749658
1043,0.0
2,5, 1, 5, 0, 6, 0.00,60.00,Thursday
31,9469604.825749658
831,9469604.825749658
1043,0.0
2,5, 1, 5, 0, 7, 0.00,60.00,Thursday
31,18504559.399306418
831,18504559.39930641
1043,60448298.35364379
2,5, 1, 5, 0, 8, 0.00,60.00,Thursday
31,19628997.390904938
831,19628997.390904935
1043,76141553.50856146
2,5, 1, 5, 0, 9, 0.00,60.00,Thursday
31,29768364.237896425
831,29768364.237896425
1043,45199738.605083029
2,5, 1, 5, 0,10, 0.00,60.00,Thursday
31,33412629.042775085
831,33412629.042775085
1043,22515851.089161096
2,5, 1, 5, 0,11, 0.00,60.00,Thursday
31,38623724.00012688
831,38623724.00012689
1043,378595.3391567727
2,5, 1, 5, 0,12, 0.00,60.00,Thursday
31,36453478.171866919
831,36453478.171866919
1043,0.0
2,5, 1, 5, 0,13, 0.00,60.00,Thursday
31,37265966.29193262
831,37265966.29193261
1043,0.0
2,5, 1, 5, 0,14, 0.00,60.00,Thursday
31,33537010.34900128
831,33537010.34900128
1043,0.0
2,5, 1, 5, 0,15, 0.00,60.00,Thursday
31,31962398.11756105
831,31962398.11756105
1043,0.0
2,5, 1, 5, 0,16, 0.00,60.00,Thursday
31,31974805.919456528
831,31974805.919456528
1043,0.0
2,5, 1, 5, 0,17, 0.00,60.00,Thursday
31,35178550.06640704
831,35178550.06640704
1043,0.0
2,5, 1, 5, 0,18, 0.00,60.00,Thursday
31,35787953.86254509
831,35787953.86254507
1043,4054370.8182754556
2,5, 1, 5, 0,19, 0.00,60.00,Thursday
31,31860665.645820988
831,31860665.645820984
1043,974.7367809842729
2,5, 1, 5, 0,20, 0.00,60.00,Thursday
31,11853154.258345897
831,11853154.258345895
1043,0.0
2,5, 1, 5, 0,21, 0.00,60.00,Thursday
31,10637784.395628443
831,10637784.395628443
1043,0.0
2,5, 1, 5, 0,22, 0.00,60.00,Thursday
31,10637784.395628443
831,10637784.395628443
1043,0.0
2,5, 1, 5, 0,23, 0.00,60.00,Thursday
31,9543951.519120457
831,9543951.519120455
1043,0.0
2,5, 1, 5, 0,24, 0.00,60.00,Thursday
31,7197449.08321209
831,7197449.08321209
1043,0.0
2,6, 1, 6, 0, 1, 0.00,60.00,Friday
31,9469604.825749658
831,9469604.825749658
1043,0.0
2,6, 1, 6, 0, 2, 0.00,60.00,Friday
31,9469604.825749658
831,9469604.825749658
1043,0.0
2,6, 1, 6, 0, 3, 0.00,60.00,Friday
31,9469604.825749658
831,9469604.825749658
1043,0.0
2,6, 1, 6, 0, 4, 0.00,60.00,Friday
31,9469604.825749658
831,9469604.825749658
1043,0.0
2,6, 1, 6, 0, 5, 0.00,60.00,Friday
31,9469604.825749658
831,9469604.825749658
1043,0.0
2,6, 1, 6, 0, 6, 0.00,60.00,Friday
31,9469604.825749658
831,9469604.825749658
1043,0.0
2,6, 1, 6, 0, 7, 0.00,60.00,Friday
31,18504559.399306418
831,18504559.39930641
1043,61693830.63193074
2,6, 1, 6, 0, 8, 0.00,60.00,Friday
31,19612770.200729919
831,19612770.20072991
1043,77865973.60641249
2,6, 1, 6, 0, 9, 0.00,60.00,Friday
31,29736007.959526026
831,29736007.959526026
1043,46220562.76536298
2,6, 1, 6, 0,10, 0.00,60.00,Friday
31,29456371.08944783
831,29456371.08944783
1043,33167757.068950904
2,6, 1, 6, 0,11, 0.00,60.00,Friday
31,29367374.859965896
831,29367374.85996589
1043,26526255.7667504
2,6, 1, 6, 0,12, 0.00,60.00,Friday
31,40313091.59030388
831,40313091.590303879
1043,367779.0471794989
2,6, 1, 6, 0,13, 0.00,60.00,Friday
31,40887444.50021737
831,40887444.50021738
1043,11555071.534461663
2,6, 1, 6, 0,14, 0.00,60.00,Friday
31,40444547.40037058
831,40444547.40037059
1043,0.0
2,6, 1, 6, 0,15, 0.00,60.00,Friday
31,39694699.85136416
831,39694699.85136416
1043,489707.8212599354
2,6, 1, 6, 0,16, 0.00,60.00,Friday
31,38791361.6442268
831,38791361.64422679
1043,4026231.672059341
2,6, 1, 6, 0,17, 0.00,60.00,Friday
31,32264624.167535459
831,32264624.16753546
1043,27552997.2795886
2,6, 1, 6, 0,18, 0.00,60.00,Friday
31,23522832.028854118
831,23522832.028854114
1043,57801518.238624658
2,6, 1, 6, 0,19, 0.00,60.00,Friday
31,17622298.037385487
831,17622298.037385484
1043,59950401.10622622
2,6, 1, 6, 0,20, 0.00,60.00,Friday
31,11853154.258345897
831,11853154.258345895
1043,0.0
2,6, 1, 6, 0,21, 0.00,60.00,Friday
31,10637784.395628443
831,10637784.395628443
1043,0.0
2,6, 1, 6, 0,22, 0.00,60.00,Friday
31,10637784.395628443
831,10637784.395628443
1043,0.0
2,6, 1, 6, 0,23, 0.00,60.00,Friday
31,9543951.519120457
831,9543951.519120455
1043,0.0
2,6, 1, 6, 0,24, 0.00,60.00,Friday
31,7197449.08321209
831,7197449.08321209
1043,0.0
2,7, 1, 7, 0, 1, 0.00,60.00,Saturday
31,6404338.596677196
831,6404338.596677196
1043,0.0
2,7, 1, 7, 0, 2, 0.00,60.00,Saturday
31,6404338.596677196
831,6404338.596677196
1043,0.0
2,7, 1, 7, 0, 3, 0.00,60.00,Saturday
31,6404338.596677196
831,6404338.596677196
1043,0.0
2,7, 1, 7, 0, 4, 0.00,60.00,Saturday
31,6404338.596677196
831,6404338.596677196
1043,0.0
2,7, 1, 7, 0, 5, 0.00,60.00,Saturday
31,6404338.596677196
831,6404338.596677197
1043,0.0
2,7, 1, 7, 0, 6, 0.00,60.00,Saturday
31,6404338.596677196
831,6404338.596677196
1043,0.0
2,7, 1, 7, 0, 7, 0.00,60.00,Saturday
31,7595938.596677196
831,7595938.596677195
1043,0.0
2,7, 1, 7, 0, 8, 0.00,60.00,Saturday
31,6128818.596677196
831,6128818.596677195
1043,0.0
2,7, 1, 7, 0, 9, 0.00,60.00,Saturday
31,5395258.596677196
831,5395258.596677196
1043,0.0
2,7, 1, 7, 0,10, 0.00,60.00,Saturday
31,5395258.596677196
831,5395258.596677196
1043,0.0
2,7, 1, 7, 0,11, 0.00,60.00,Saturday
31,5395258.596677196
831,5395258.596677196
1043,0.0
2,7, 1, 7, 0,12, 0.00,60.00,Saturday
31,5395258.596677196
831,5395258.596677196
1043,0.0
2,7, 1, 7, 0,13, 0.00,60.00,Saturday
31,5395258.596677196
831,5395258.596677196
1043,0.0
2,7, 1, 7, 0,14, 0.00,60.00,Saturday
31,5395258.596677196
831,5395258.596677196
1043,0.0
2,7, 1, 7, 0,15, 0.00,60.00,Saturday
31,5395258.596677196
831,5395258.596677196
1043,0.0
2,7, 1, 7, 0,16, 0.00,60.00,Saturday
31,5395258.596677196
831,5395258.596677196
1043,0.0
2,7, 1, 7, 0,17, 0.00,60.00,Saturday
31,6495598.596677196
831,6495598.596677196
1043,0.0
2,7, 1, 7, 0,18, 0.00,60.00,Saturday
31,7595938.596677196
831,7595938.596677195
1043,0.0
2,7, 1, 7, 0,19, 0.00,60.00,Saturday
31,7595938.596677196
831,7595938.596677195
1043,0.0
2,7, 1, 7, 0,20, 0.00,60.00,Saturday
31,6794038.596677196
831,6794038.596677196
1043,0.0
2,7, 1, 7, 0,21, 0.00,60.00,Saturday
31,6794038.596677196
831,6794038.596677196
1043,0.0
2,7, 1, 7, 0,22, 0.00,60.00,Saturday
31,6794038.596677196
831,6794038.596677196
1043,0.0
2,7, 1, 7, 0,23, 0.00,60.00,Saturday
31,6872559.38610846
831,6872559.38610846
1043,553211.1968209733
2,7, 1, 7, 0,24, 0.00,60.00,Saturday
31,7039360.445732307
831,7039360.445732307
1043,793234.7428637985
2,8, 1, 8, 0, 1, 0.00,60.00,Sunday
31,6655884.771062209
831,6655884.771062209
1043,894530.3730223883
2,8, 1, 8, 0, 2, 0.00,60.00,Sunday
31,6931310.295938591
831,6931310.295938591
1043,1253003.4385377039
2,8, 1, 8, 0, 3, 0.00,60.00,Sunday
31,7778395.260840163
831,7778395.260840163
1043,2405839.678262007
2,8, 1, 8, 0, 4, 0.00,60.00,Sunday
31,7528786.437984083
831,7528786.437984081
1043,2212249.924255126
2,8, 1, 8, 0, 5, 0.00,60.00,Sunday
31,7729817.541734928
831,7729817.541734928
1043,3725846.9620383235
2,8, 1, 8, 0, 6, 0.00,60.00,Sunday
31,7916483.81865295
831,7916483.81865295
1043,2104918.6737019249
2,8, 1, 8, 0, 7, 0.00,60.00,Sunday
31,8535531.855908864
831,8535531.855908862
1043,1986328.1514824238
2,8, 1, 8, 0, 8, 0.00,60.00,Sunday
31,7286827.8875468899
831,7286827.887546889
1043,3244996.149658126
2,8, 1, 8, 0, 9, 0.00,60.00,Sunday
31,6594898.547160311
831,6594898.547160309
1043,2640027.52041373
2,8, 1, 8, 0,10, 0.00,60.00,Sunday
31,6103876.748136547
831,6103876.748136547
1043,1180819.1071974929
2,8, 1, 8, 0,11, 0.00,60.00,Sunday
31,5395258.596677196
831,5395258.596677196
1043,0.0
2,8, 1, 8, 0,12, 0.00,60.00,Sunday
31,5395258.596677196
831,5395258.596677196
1043,0.0
2,8, 1, 8, 0,13, 0.00,60.00,Sunday
31,5395258.596677196
831,5395258.596677196
1043,0.0
2,8, 1, 8, 0,14, 0.00,60.00,Sunday
31,5395258.596677196
831,5395258.596677196
1043,0.0
2,8, 1, 8, 0,15, 0.00,60.00,Sunday
31,5395258.596677196
831,5395258.596677196
1043,0.0
2,8, 1, 8, 0,16, 0.00,60.00,Sunday
31,5395258.596677196
831,5395258.596677196
1043,0.0
2,8, 1, 8, 0,17, 0.00,60.00,Sunday
31,6495598.596677196
831,6495598.596677196
1043,0.0
2,8, 1, 8, 0,18, 0.00,60.00,Sunday
31,7595938.596677196
831,7595938.596677195
1043,0.0
2,8, 1, 8, 0,19, 0.00,60.00,Sunday
31,7595938.596677196
831,7595938.596677195
1043,0.0
2,8, 1, 8, 0,20, 0.00,60.00,Sunday
31,6794038.596677196
831,6794038.596677196
1043,0.0
2,8, 1, 8, 0,21, 0.00,60.00,Sunday
31,6794038.596677196
831,6794038.596677196
1043,0.0
2,8, 1, 8, 0,22, 0.00,60.00,Sunday
31,6794038.596677196
831,6794038.596677196
1043,0.0
2,8, 1, 8, 0,23, 0.00,60.00,Sunday
31,7346139.402198518
831,7346139.402198518
1043,0.0
2,8, 1, 8, 0,24, 0.00,60.00,Sunday
31,7819532.629722286
831,7819532.629722285
1043,0.0
2,9, 1, 9, 0, 1, 0.00,60.00,Monday
31,9799256.575027422
831,9799256.575027422
1043,0.0
2,9, 1, 9, 0, 2, 0.00,60.00,Monday
31,9469604.825749658
831,9469604.825749658
1043,0.0
2,9, 1, 9, 0, 3, 0.00,60.00,Monday
31,9469604.825749658
831,9469604.825749658
1043,0.0
2,9, 1, 9, 0, 4, 0.00,60.00,Monday
31,9469604.825749658
831,9469604.825749658
1043,0.0
2,9, 1, 9, 0, 5, 0.00,60.00,Monday
31,9469604.825749658
831,9469604.825749658
1043,0.0
2,9, 1, 9, 0, 6, 0.00,60.00,Monday
31,9469604.825749658
831,9469604.825749658
1043,0.0
2,9, 1, 9, 0, 7, 0.00,60.00,Monday
31,35688466.776470649
831,35688466.776470649
1043,46682970.29005387
2,9, 1, 9, 0, 8, 0.00,60.00,Monday
31,38040162.52900876
831,38040162.52900876
1043,44039784.009983997
2,9, 1, 9, 0, 9, 0.00,60.00,Monday
31,45379860.702616419
831,45379860.702616419
1043,4693416.430790142
2,9, 1, 9, 0,10, 0.00,60.00,Monday
31,40981078.53243543
831,40981078.53243544
1043,147758.30693833548
2,9, 1, 9, 0,11, 0.00,60.00,Monday
31,37560395.571532268
831,37560395.57153226
1043,0.0
2,9, 1, 9, 0,12, 0.00,60.00,Monday
31,34381106.674411367
831,34381106.67441137
1043,0.0
2,9, 1, 9, 0,13, 0.00,60.00,Monday
31,34430853.68287177
831,34430853.68287176
1043,0.0
2,9, 1, 9, 0,14, 0.00,60.00,Monday
31,31267928.976143838
831,31267928.976143838
1043,0.0
2,9, 1, 9, 0,15, 0.00,60.00,Monday
31,30548426.512538844
831,30548426.512538837
1043,0.0
2,9, 1, 9, 0,16, 0.00,60.00,Monday
31,30768066.433658229
831,30768066.43365823
1043,0.0
2,9, 1, 9, 0,17, 0.00,60.00,Monday
31,33371478.417518148
831,33371478.417518148
1043,0.0
2,9, 1, 9, 0,18, 0.00,60.00,Monday
31,32835475.404060149
831,32835475.404060138
1043,0.0
2,9, 1, 9, 0,19, 0.00,60.00,Monday
31,27764282.608090737
831,27764282.608090734
1043,0.0
2,9, 1, 9, 0,20, 0.00,60.00,Monday
31,11853154.258345897
831,11853154.258345895
1043,0.0
2,9, 1, 9, 0,21, 0.00,60.00,Monday
31,10637784.395628443
831,10637784.395628443
1043,0.0
2,9, 1, 9, 0,22, 0.00,60.00,Monday
31,10637784.395628443
831,10637784.395628443
1043,0.0
2,9, 1, 9, 0,23, 0.00,60.00,Monday
31,9543951.519120457
831,9543951.519120455
1043,0.0
2,9, 1, 9, 0,24, 0.00,60.00,Monday
31,7197449.08321209
831,7197449.08321209
1043,0.0
2,10, 1,10, 0, 1, 0.00,60.00,Tuesday
31,9469604.825749658
831,9469604.825749658
1043,0.0
2,10, 1,10, 0, 2, 0.00,60.00,Tuesday
31,9469604.825749658
831,9469604.825749658
1043,0.0
2,10, 1,10, 0, 3, 0.00,60.00,Tuesday
31,9469604.825749658
831,9469604.825749658
1043,0.0
2,10, 1,10, 0, 4, 0.00,60.00,Tuesday
31,9469604.825749658
831,9469604.825749658
1043,0.0
2,10, 1,10, 0, 5, 0.00,60.00,Tuesday
31,9469604.825749658
831,9469604.825749658
1043,0.0
2,10, 1,10, 0, 6, 0.00,60.00,Tuesday
31,9469604.825749658
831,9469604.825749658
1043,0.0
2,10, 1,10, 0, 7, 0.00,60.00,Tuesday
31,30460324.536784557
831,30460324.536784553
1043,6377973.6144157149
2,10, 1,10, 0, 8, 0.00,60.00,Tuesday
31,37017852.46715224
831,37017852.46715223
1043,9513800.922996626
2,10, 1,10, 0, 9, 0.00,60.00,Tuesday
31,36418257.77324995
831,36418257.77324995
1043,0.0
2,10, 1,10, 0,10, 0.00,60.00,Tuesday
31,32077452.96541951
831,32077452.9654195
1043,0.0
2,10, 1,10, 0,11, 0.00,60.00,Tuesday
31,30888145.624747527
831,30888145.624747524
1043,0.0
2,10, 1,10, 0,12, 0.00,60.00,Tuesday
31,30103546.000239456
831,30103546.000239448
1043,0.0
2,10, 1,10, 0,13, 0.00,60.00,Tuesday
31,28351061.81017275
831,28351061.81017275
1043,0.0
2,10, 1,10, 0,14, 0.00,60.00,Tuesday
31,29838438.098303915
831,29838438.098303915
1043,0.0
2,10, 1,10, 0,15, 0.00,60.00,Tuesday
31,29794883.869722807
831,29794883.869722807
1043,0.0
2,10, 1,10, 0,16, 0.00,60.00,Tuesday
31,30025206.39917297
831,30025206.399172978
1043,0.0
2,10, 1,10, 0,17, 0.00,60.00,Tuesday
31,32290646.658558579
831,32290646.65855858
1043,0.0
2,10, 1,10, 0,18, 0.00,60.00,Tuesday
31,30970681.480546357
831,30970681.480546349
1043,61280.673761466816
2,10, 1,10, 0,19, 0.00,60.00,Tuesday
31,28587070.03854152
831,28587070.03854151
1043,0.0
2,10, 1,10, 0,20, 0.00,60.00,Tuesday
31,11853154.258345897
831,11853154.258345895
1043,0.0
2,10, 1,10, 0,21, 0.00,60.00,Tuesday
31,10637784.395628443
831,10637784.395628443
1043,0.0
2,10, 1,10, 0,22, 0.00,60.00,Tuesday
31,10637784.395628443
831,10637784.395628443
1043,0.0
2,10, 1,10, 0,23, 0.00,60.00,Tuesday
31,9543951.519120457
831,9543951.519120455
1043,0.0
2,10, 1,10, 0,24, 0.00,60.00,Tuesday
31,7197449.08321209
831,7197449.08321209
1043,0.0
2,11, 1,11, 0, 1, 0.00,60.00,Wednesday
31,9469604.825749658
831,9469604.825749658
1043,0.0
2,11, 1,11, 0, 2, 0.00,60.00,Wednesday
31,9469604.825749658
831,9469604.825749658
1043,0.0
2,11, 1,11, 0, 3, 0.00,60.00,Wednesday
31,9469604.825749658
831,9469604.825749658
1043,0.0
2,11, 1,11, 0, 4, 0.00,60.00,Wednesday
31,9469604.825749658
831,9469604.825749658
1043,0.0
2,11, 1,11, 0, 5, 0.00,60.00,Wednesday
31,9469604.825749658
831,9469604.825749658
1043,0.0
2,11, 1,11, 0, 6, 0.00,60.00,Wednesday
31,9469604.825749658
831,9469604.825749658
1043,0.0
2,11, 1,11, 0, 7, 0.00,60.00,Wednesday
31,30887267.053822604
831,30887267.053822597
1043,6347524.462424153
2,11, 1,11, 0, 8, 0.00,60.00,Wednesday
31,38032171.60299773
831,38032171.60299773
1043,11650106.415350777
2,11, 1,11, 0, 9, 0.00,60.00,Wednesday
31,40652721.67036357
831,40652721.67036356
1043,0.0
2,11, 1,11, 0,10, 0.00,60.00,Wednesday
31,36674301.24519621
831,36674301.24519621
1043,0.0
2,11, 1,11, 0,11, 0.00,60.00,Wednesday
31,33747149.49783833
831,33747149.49783834
1043,0.0
2,11, 1,11, 0,12, 0.00,60.00,Wednesday
31,31444623.594196947
831,31444623.59419693
1043,0.0
2,11, 1,11, 0,13, 0.00,60.00,Wednesday
31,30662638.276460217
831,30662638.276460217
1043,0.0
2,11, 1,11, 0,14, 0.00,60.00,Wednesday
31,29577670.51465248
831,29577670.51465247
1043,0.0
2,11, 1,11, 0,15, 0.00,60.00,Wednesday
31,29469622.761590747
831,29469622.761590747
1043,0.0
2,11, 1,11, 0,16, 0.00,60.00,Wednesday
31,29814898.950400596
831,29814898.950400596
1043,0.0
2,11, 1,11, 0,17, 0.00,60.00,Wednesday
31,31816936.971563579
831,31816936.971563579
1043,0.0
2,11, 1,11, 0,18, 0.00,60.00,Wednesday
31,27023681.025268914
831,27023681.025268914
1043,0.0
2,11, 1,11, 0,19, 0.00,60.00,Wednesday
31,22652989.460866076
831,22652989.46086607
1043,0.0
2,11, 1,11, 0,20, 0.00,60.00,Wednesday
31,11853154.258345897
831,11853154.258345895
1043,0.0
2,11, 1,11, 0,21, 0.00,60.00,Wednesday
31,10637784.395628443
831,10637784.395628443
1043,0.0
2,11, 1,11, 0,22, 0.00,60.00,Wednesday
31,10637784.395628443
831,10637784.395628443
1043,0.0
2,11, 1,11, 0,23, 0.00,60.00,Wednesday
31,9543951.519120457
831,9543951.519120455
1043,0.0