Program Version,EnergyPlus, Version 8.6.0-198c6a3cff, YMD=2019.03.03 19:13
1,5,Environment Title[],Latitude[deg],Longitude[deg],Time Zone[],Elevation[m]
2,6,Day of Simulation[],Month[],Day of Month[],DST Indicator[1=yes 0=no],Hour[],StartMinute[],EndMinute[],DayType
3,3,Cumulative Day of Simulation[],Month[],Day of Month[],DST Indicator[1=yes 0=no],DayType  ! When Daily Report Variables Requested
4,2,Cumulative Days of Simulation[],Month[]  ! When Monthly Report Variables Requested
5,1,Cumulative Days of Simulation[] ! When Run Period Report Variables Requested
525,1,CORE_ZN,Zone Predicted Sensible Load to Setpoint Heat Transfer Rate [W] !Hourly
526,1,CORE_ZN,Zone Predicted Sensible Load to Heating Setpoint Heat Transfer Rate [W] !Hourly
527,1,CORE_ZN,Zone Predicted Sensible Load to Cooling Setpoint Heat Transfer Rate [W] !Hourly
562,1,PERIMETER_ZN_1,Zone Predicted Sensible Load to Setpoint Heat Transfer Rate [W] !Hourly
563,1,PERIMETER_ZN_1,Zone Predicted Sensible Load to Heating Setpoint Heat Transfer Rate [W] !Hourly
564,1,PERIMETER_ZN_1,Zone Predicted Sensible Load to Cooling Setpoint Heat Transfer Rate [W] !Hourly
599,1,PERIMETER_ZN_2,Zone Predicted Sensible Load to Setpoint Heat Transfer Rate [W] !Hourly
600,1,PERIMETER_ZN_2,Zone Predicted Sensible Load to Heating Setpoint Heat Transfer Rate [W] !Hourly
601,1,PERIMETER_ZN_2,Zone Predicted Sensible Load to Cooling Setpoint Heat Transfer Rate [W] !Hourly
636,1,PERIMETER_ZN_3,Zone Predicted Sensible Load to Setpoint Heat Transfer Rate [W] !Hourly
637,1,PERIMETER_ZN_3,Zone Predicted Sensible Load to Heating Setpoint Heat Transfer Rate [W] !Hourly
638,1,PERIMETER_ZN_3,Zone Predicted Sensible Load to Cooling Setpoint Heat Transfer Rate [W] !Hourly
673,1,PERIMETER_ZN_4,Zone Predicted Sensible Load to Setpoint Heat Transfer Rate [W] !Hourly
674,1,PERIMETER_ZN_4,Zone Predicted Sensible Load to Heating Setpoint Heat Transfer Rate [W] !Hourly
675,1,PERIMETER_ZN_4,Zone Predicted Sensible Load to Cooling Setpoint Heat Transfer Rate [W] !Hourly
710,1,ATTIC,Zone Predicted Sensible Load to Setpoint Heat Transfer Rate [W] !Hourly
711,1,ATTIC,Zone Predicted Sensible Load to Heating Setpoint Heat Transfer Rate [W] !Hourly
712,1,ATTIC,Zone Predicted Sensible Load to Cooling Setpoint Heat Transfer Rate [W] !Hourly
End of Data Dictionary
1,TUCSON-DAVIS-MONTHAN.AFB_AZ_USA ANN HTG 99.6% CONDNS DB,  33.45,-111.98,  -7.00, 337.00
2,1,12,21, 0, 1, 0.00,60.00,WinterDesignDay
525,1134.7298961141557
526,1105.6124848379443
527,37693.56704607013
562,2336.5493323893747
563,2303.4281030276466
564,31953.15094293589
599,1420.9414331680398
600,1375.1802825387228
601,19171.509469068045
636,2305.803163711009
637,2266.2757520109626
638,31856.627529304125
673,1423.1264431615484
674,1380.6018191721034
675,19173.44890917915
710,0.0
711,0.0
712,0.0
2,1,12,21, 0, 2, 0.00,60.00,WinterDesignDay
525,1331.7342452146338
526,1307.3196177660493
527,37731.455424776206
562,2311.8368525400438
563,2279.522294195348
564,31951.311646023092
599,1417.5964179123039
600,1374.334167364883
601,19190.29539699043
636,2301.6938689095437
637,2265.171136481109
638,31897.432226138455
673,1418.9880222578388
674,1375.6001449572716
675,19193.232373703755
710,0.0
711,0.0
712,0.0
2,1,12,21, 0, 3, 0.00,60.00,WinterDesignDay
525,1146.178781096286
526,1020.5897965711338
527,33474.506592507496
562,1975.6099132058814
563,1914.5743630969384
564,27917.03903450912
599,1172.1884775851554
600,1089.3817766805241
601,16688.073316549187
636,1957.767083484774
637,1888.6589639040556
638,27811.57177469536
673,1170.388744835449
674,1082.1362344498482
675,16684.776400178074
710,0.0
711,0.0
712,0.0
2,1,12,21, 0, 4, 0.00,60.00,WinterDesignDay
525,1236.2389929957924
526,1184.9880502061865
527,33879.470879648296
562,2350.1369326972167
563,2320.4062071323983
564,28796.00994985722
599,1458.9209739748576
600,1418.396072218323
601,17335.35321022142
636,2347.1191890383902
637,2313.41179036426
638,28749.595184625
673,1458.8737151809019
674,1414.5298159971687
675,17333.751515236243
710,0.0
711,0.0
712,0.0
2,1,12,21, 0, 5, 0.00,60.00,WinterDesignDay
525,1326.0188194921757
526,1225.1651002672982
527,33708.33972848746
562,1981.3785489620543
563,1922.3043385000208
564,27935.893613753953
599,1176.9781602959958
600,1096.3001659703975
601,16697.015762079096
636,1965.3447457563752
637,1898.461729021885
638,27830.62606171083
673,1172.6954144296449
674,1084.0209556935854
675,16689.103589280858
710,0.0
711,0.0
712,0.0
2,1,12,21, 0, 6, 0.00,60.00,WinterDesignDay
525,1207.3888724679057
526,1157.4810935866435
527,33822.73312289547
562,2350.8395799530285
563,2321.3823886958317
564,28799.040838907193
599,1460.8574652726722
600,1420.6230489101429
601,17339.580549460177
636,2348.9372722363646
637,2315.6322319241754
638,28754.68077604516
673,1460.026769439393
674,1415.7082280883235
675,17336.225576788802
710,0.0
711,0.0
712,0.0
2,1,12,21, 0, 7, 0.00,60.00,WinterDesignDay
525,1304.5917597998475
526,1205.5337152140858
527,33676.69627179932
562,1982.1379069202676
563,1923.312296949032
564,27938.716276394593
599,1178.298631269008
600,1097.9609062316795
601,16700.372439137285
636,1966.9423840971351
637,1900.5036490788104
638,27835.22973680131
673,1173.2937403103358
674,1084.6932489635626
675,16690.828443148577
710,0.0
711,0.0
712,0.0
2,1,12,21, 0, 8, 0.00,60.00,WinterDesignDay
525,986.6842397727665
526,959.0880535555076
527,33296.535391407546
562,2260.045440246409
563,2260.045440246409
564,28734.228754667707
599,1430.141027082542
600,1430.141027082542
601,17356.098400937426
636,2264.6391240091034
637,2264.6391240091034
638,28712.231003575744
673,1430.7644970833023
674,1430.7644970833023
675,17356.472230822277
710,0.0
711,0.0
712,0.0
2,1,12,21, 0, 9, 0.00,60.00,WinterDesignDay
525,1383.3378223631273
526,1362.9748136692435
527,35858.61594186968
562,1939.1255224921058
563,1939.1255224921058
564,29590.013113137586
599,1218.0366870522962
600,1218.0366870522962
601,17812.12790117018
636,1937.4783555613976
637,1937.4783555613976
638,29531.46330913734
673,1217.2034810197654
674,1217.2034810197654
675,17811.76809456168
710,0.0
711,0.0
712,0.0
2,1,12,21, 0,10, 0.00,60.00,WinterDesignDay
525,967.7325231259241
526,921.0060878446908
527,37792.723177221946
562,2212.349382884492
563,2212.349382884492
564,31897.366075972885
599,1391.4458191117249
600,1391.4458191117249
601,19222.037260830763
636,2215.76482870479
637,2215.76482870479
638,31874.61489404846
673,1391.6187051466343
674,1391.6187051466343
675,19222.98998732929
710,0.0
711,0.0
712,0.0
2,1,12,21, 0,11, 0.00,60.00,WinterDesignDay
525,1423.399601314082
526,1399.8441584041668
527,35872.078814220855
562,1938.0796265148863
563,1938.0796265148863
564,29587.468466495062
599,1217.2220990090057
600,1217.2220990090057
601,17810.304009857307
636,1936.6000114835097
637,1936.6000114835097
638,29529.303195487813
673,1216.7429115276238
674,1216.7429115276238
675,17810.6729045937
710,0.0
711,0.0
712,0.0
2,1,12,21, 0,12, 0.00,60.00,WinterDesignDay
525,975.6622644719118
526,928.3553049627839
527,37807.859373428044
562,2211.81384308853
563,2211.81384308853
564,31896.092871849443
599,1391.0681625867753
600,1391.0681625867753
601,19221.20999357645
636,2215.4120524768846
637,2215.4120524768846
638,31873.729652292353
673,1391.4457951213942
674,1391.4457951213942
675,19222.57700974704
710,0.0
711,0.0
712,0.0
2,1,12,21, 0,13, 0.00,60.00,WinterDesignDay
525,1438.231663042042
526,1414.4801078146672
527,35889.77476424222
562,1937.756111464738
563,1937.756111464738
564,29586.532296225592
599,1217.0323550473765
600,1217.0323550473765
601,17809.818153243803
636,1936.4262107697812
637,1936.4262107697812
638,29528.708641630907
673,1216.669553390703
674,1216.669553390703
675,17810.43457123476
710,0.0
711,0.0
712,0.0
2,1,12,21, 0,14, 0.00,60.00,WinterDesignDay
525,985.4542808606753
526,937.5582193411204
527,37824.50004548592
562,2211.5813346926893
563,2211.5813346926893
564,31895.519864781876
599,1390.9454648143455
600,1390.9454648143455
601,19220.927365551444
636,2215.3255315843858
637,2215.3255315843858
638,31873.461424859794
673,1391.418488938781
674,1391.418488938781
675,19222.489114119482
710,0.0
711,0.0
712,0.0
2,1,12,21, 0,15, 0.00,60.00,WinterDesignDay
525,1445.906152873781
526,1421.8024974790758
527,35901.86032034014
562,1937.579800962298
563,1937.579800962298
564,29585.97372111991
599,1216.9484804560082
600,1216.9484804560082
601,17809.576900044496
636,1936.3649831415296
637,1936.3649831415296
638,29528.41401992714
673,1216.6545934686653
674,1216.6545934686653
675,17810.342870992503
710,0.0
711,0.0
712,0.0
2,1,12,21, 0,16, 0.00,60.00,WinterDesignDay
525,986.4469489788594
526,938.4647473076279
527,37831.17135221994
562,2211.433071546751
563,2211.433071546751
564,31895.152366215745
599,1390.8769131625695
600,1390.8769131625695
601,19220.766342717096
636,2215.287232132397
637,2215.287232132397
638,31873.323859920944
673,1391.4139221270452
674,1391.4139221270452
675,19222.45934587326
710,0.0
711,0.0
712,0.0
2,1,12,21, 0,17, 0.00,60.00,WinterDesignDay
525,1449.35404452439
526,1425.376563476976
527,35908.8639821811
562,1937.4499333545755
563,1937.4499333545755
564,29585.596421982777
599,1216.8897447319969
600,1216.8897447319969
601,17809.416900246102
636,1936.3209425914147
637,1936.3209425914147
638,29528.232541795296
673,1216.6449055119149
674,1216.6449055119149
675,17810.290166987175
710,0.0
711,0.0
712,0.0
2,1,12,21, 0,18, 0.00,60.00,WinterDesignDay
525,987.4690047393925
526,939.3640180693851
527,37835.882207042705
562,2211.3203956469965
563,2211.3203956469965
564,31894.879370506926
599,1390.8262160875547
600,1390.8262160875547
601,19220.648301659636
636,2215.2566227595057
637,2215.2566227595057
638,31873.22268067284
673,1391.4098454952361
674,1391.4098454952361
675,19222.437167628694
710,0.0
711,0.0
712,0.0
2,1,12,21, 0,19, 0.00,60.00,WinterDesignDay
525,1369.9805870761122
526,1345.9900804741765
527,37937.45442302337
562,2106.971922129525
563,2076.8276438345706
564,31336.064385849768
599,1299.6009824047408
600,1259.1292716786036
601,18799.195259620097
636,2100.872190676057
637,2067.1413099230354
638,31259.271404921416
673,1299.3268986934952
674,1255.0161406872796
675,18798.434978799916
710,0.0
711,0.0
712,0.0
2,1,12,21, 0,20, 0.00,60.00,WinterDesignDay
525,1248.8011540946068
526,1217.860655633627
527,40036.32743240421
562,2435.2117053053817
563,2405.4947872418725
564,33703.65551248201
599,1506.5065717797213
600,1466.2983402559719
601,20246.7454328799
636,2434.165853867023
637,2400.858098133672
638,33662.56056696844
673,1505.6398406676578
674,1461.161377956191
675,20243.711763678555
710,0.0
711,0.0
712,0.0
2,1,12,21, 0,21, 0.00,60.00,WinterDesignDay
525,1276.241490820874
526,1271.8633901333897
527,40306.269622574015
562,2179.6325863552543
563,2120.933245054984
564,32957.18238954008
599,1315.4519262772392
600,1235.3685706116478
601,19699.25305457915
636,2168.4281128034527
637,2102.4921647852643
638,32859.99818832456
673,1312.9635093317913
674,1224.0451230410208
675,19692.138232449382
710,0.0
711,0.0
712,0.0
2,1,12,21, 0,22, 0.00,60.00,WinterDesignDay
525,1521.9628646813633
526,1513.0371107610097
527,40264.153300474536
562,2438.1974318671646
563,2408.997981570275
564,33711.4901560823
599,1508.6246096900077
600,1468.6790197119306
601,20251.14258693113
636,2437.1945837371345
637,2404.384596739788
638,33670.20130092411
673,1506.8220908342093
674,1462.3590145458093
675,20246.320601248488
710,0.0
711,0.0
712,0.0
2,1,12,21, 0,23, 0.00,60.00,WinterDesignDay
525,1267.6627038352938
526,1263.253351526072
527,40292.85364896484
562,2181.562295158932
563,2123.3448797089736
564,32961.78247785636
599,1316.8381339568484
600,1237.0739471797892
601,19702.190289706225
636,2170.479383373529
637,2105.060323559245
638,32864.990878736084
673,1313.645056029302
674,1224.7216359258157
675,19693.647756356844
710,0.0
711,0.0
712,0.0
2,1,12,21, 0,24, 0.00,60.00,WinterDesignDay
525,1508.712595166845
526,1499.9439378953866
527,40251.10616182014
562,2439.416055001027
563,2410.3783219084667
564,33714.07822409747
599,1509.5403791958968
600,1469.7091723889655
601,20253.036451033797
636,2438.4928182349922
637,2405.8635070304963
638,33673.07168944815
673,1507.3955364295725
674,1462.9373883935505
675,20247.531409418894
710,0.0
711,0.0
712,0.0
1,TUCSON-DAVIS-MONTHAN.AFB_AZ_USA ANN CLG .4% CONDNS DB=>MWB,  33.45,-111.98,  -7.00, 337.00
2,1, 7,21, 0, 1, 0.00,60.00,SummerDesignDay
525,-4991.050129338091
526,-51033.134397344016
527,-4991.050129338091
562,-4012.2273115541398
563,-39897.82672080109
564,-4012.2273115541398
599,-2396.8915147543285
600,-23924.567541823984
601,-2396.8915147543285
636,-4010.617113219203
637,-39903.33337181626
638,-4010.617113219203
673,-2460.867932251412
674,-24066.588970676312
675,-2460.867932251412
710,0.0
711,0.0
712,0.0
2,1, 7,21, 0, 2, 0.00,60.00,SummerDesignDay
525,-5547.662876195297
526,-49443.89841209189
527,-5547.662876195297
562,-4542.860466762253
563,-38750.48000805152
564,-4542.860466762253
599,-2748.2448108846215
600,-23272.468018760832
601,-2748.2448108846215
636,-4540.964194816935
637,-38754.3865029097
638,-4540.964194816935
673,-2825.091543448256
674,-23413.708681578875
675,-2825.091543448256
710,0.0
711,0.0
712,0.0
2,1, 7,21, 0, 3, 0.00,60.00,SummerDesignDay
525,-4436.318845194095
526,-46012.183720884146
527,-4436.318845194095
562,-3492.176410321894
563,-35844.68035135264
564,-3492.176410321894
599,-2083.0714062739567
600,-21493.568853613593
601,-2083.0714062739567
636,-3490.754358155491
637,-35850.028206089635
638,-3490.754358155491
673,-2093.663335831976
674,-21540.902111248888
675,-2093.663335831976
710,0.0
711,0.0
712,0.0
2,1, 7,21, 0, 4, 0.00,60.00,SummerDesignDay
525,-5178.148839555107
526,-46938.16190680954
527,-5178.148839555107
562,-4122.42574535378
563,-36639.04605888991
564,-4122.42574535378
599,-2483.1093557428176
600,-21994.299094083737
601,-2483.1093557428176
636,-4122.331694884572
637,-36644.917374444376
638,-4122.331694884572
673,-2528.923351649266
674,-22089.829597814543
675,-2528.923351649266
710,0.0
711,0.0
712,0.0
2,1, 7,21, 0, 5, 0.00,60.00,SummerDesignDay
525,-5373.912343790323
526,-48974.75736593414
527,-5373.912343790323
562,-3963.4076562127393
563,-37810.28640509594
564,-3963.4076562127393
599,-2326.2709042425918
600,-22617.997002254444
601,-2326.2709042425918
636,-3965.78679417364
637,-37820.12822662721
638,-3965.78679417364
673,-2332.4956712465314
674,-22654.18606625778
675,-2332.4956712465314
710,0.0
711,0.0
712,0.0
2,1, 7,21, 0, 6, 0.00,60.00,SummerDesignDay
525,-5678.78993779181
526,-49467.37261264134
527,-5678.78993779181
562,-4375.976170151081
563,-38384.96872824907
564,-4375.976170151081
599,-2645.7822204661593
600,-23041.478447135156
601,-2645.7822204661593
636,-4393.774307512361
637,-38413.38857368468
638,-4393.774307512361
673,-2652.649603797717
674,-23081.3931539935
675,-2652.649603797717
710,0.0
711,0.0
712,0.0
2,1, 7,21, 0, 7, 0.00,60.00,SummerDesignDay
525,-3083.019824435421
526,-46931.22064096515
527,-3083.019824435421
562,-2465.1152154782753
563,-36555.968131677786
564,-2465.1152154782753
599,-1707.2758894497254
600,-22362.037605482165
601,-1707.2758894497254
636,-2520.1853087100285
637,-36687.79643636517
638,-2520.1853087100285
673,-1508.7643333122267
674,-21970.74533997061
675,-1508.7643333122267
710,0.0
711,0.0
712,0.0
2,1, 7,21, 0, 8, 0.00,60.00,SummerDesignDay
525,-2806.7970875109845
526,-74117.37202353205
527,-2806.7970875109845
562,-2324.754274561516
563,-57280.62271057185
564,-2324.754274561516
599,-2010.3009534342493
600,-35419.05143670229
601,-2010.3009534342493
636,-2360.2857824752846
637,-57382.514122299726
638,-2360.2857824752846
673,-1422.1820774341506
674,-34251.714218841844
675,-1422.1820774341506
710,0.0
711,0.0
712,0.0
2,1, 7,21, 0, 9, 0.00,60.00,SummerDesignDay
525,-2856.3631198276635
526,-82635.598669139
527,-2856.3631198276635
562,-2470.7177612395985
563,-63975.25857534062
564,-2470.7177612395985
599,-2405.120986570696
600,-39959.30749580107
601,-2405.120986570696
636,-2503.8298547246536
637,-64060.29323129545
638,-2503.8298547246536
673,-1503.16082381185
674,-38203.52973092626
675,-1503.16082381185
710,0.0
711,0.0
712,0.0
2,1, 7,21, 0,10, 0.00,60.00,SummerDesignDay
525,-2957.926541290554
526,-80786.21583718209
527,-2957.926541290554
562,-2680.20347829528
563,-62841.29839483907
564,-2680.20347829528
599,-2616.71405842754
600,-39424.95535031499
601,-2616.71405842754
636,-2708.3457619512305
637,-62908.60087644353
638,-2708.3457619512305
673,-1631.2410354995852
674,-37537.64321251938
675,-1631.2410354995852
710,0.0
711,0.0
712,0.0
2,1, 7,21, 0,11, 0.00,60.00,SummerDesignDay
525,-3073.8963753826647
526,-66351.70270833193
527,-3073.8963753826647
562,-2902.2134577584343
563,-52152.26158218209
564,-2902.2134577584343
599,-2516.671801349892
600,-32669.81451308513
601,-2516.671801349892
636,-2916.4454123114606
637,-52185.497516167954
638,-2916.4454123114606
673,-1770.8493396825609
674,-31214.13795899211
675,-1770.8493396825609
710,0.0
711,0.0
712,0.0
2,1, 7,21, 0,12, 0.00,60.00,SummerDesignDay
525,-3185.1990087482377
526,-51892.49910201776
527,-3185.1990087482377
562,-3105.4512165927135
563,-41410.085135925096
564,-3105.4512165927135
599,-2352.09971119189
600,-25752.504159669475
601,-2352.09971119189
636,-3103.359145962593
637,-41407.846540151004
638,-3103.359145962593
673,-1886.878191883071
674,-24838.263614800675
675,-1886.878191883071
710,0.0
711,0.0
712,0.0
2,1, 7,21, 0,13, 0.00,60.00,SummerDesignDay
525,-3280.146043578023
526,-37388.09012285967
527,-3280.146043578023
562,-3279.5631223517958
563,-30596.977602917596
564,-3279.5631223517958
599,-2318.9621973596018
600,-19065.002045198864
601,-2318.9621973596018
636,-3258.7173729237206
637,-30558.034157221395
638,-3258.7173729237206
673,-1983.891388541324
674,-18412.358625454202
675,-1983.891388541324
710,0.0
711,0.0
712,0.0
2,1, 7,21, 0,14, 0.00,60.00,SummerDesignDay
525,-3348.3487988122993
526,-24928.918658440714
527,-3348.3487988122993
562,-3418.293181817228
563,-21305.445158894003
564,-3418.293181817228
599,-2299.131598420016
600,-13354.089545136007
601,-2299.131598420016
636,-3382.2139017343557
637,-21235.19483284275
638,-3382.2139017343557
673,-2067.292100546438
674,-12898.98224822735
675,-2067.292100546438
710,0.0
711,0.0
712,0.0
2,1, 7,21, 0,15, 0.00,60.00,SummerDesignDay
525,-3383.6674400991383
526,-29235.05835357805
527,-3383.6674400991383
562,-3479.628698175966
563,-24622.499542511283
564,-3479.628698175966
599,-2298.1718088040893
600,-15244.244711935724
601,-2298.1718088040893
636,-3462.2885022475966
637,-24585.14440481612
638,-3462.2885022475966
673,-2331.737223451463
674,-15247.663408691602
675,-2331.737223451463
710,0.0
711,0.0
712,0.0
2,1, 7,21, 0,16, 0.00,60.00,SummerDesignDay
525,-3402.0247118592383
526,-44012.984991569974
527,-3402.0247118592383
562,-3510.2707683239355
563,-35848.6136458406
564,-3510.2707683239355
599,-2272.7958797112897
600,-21824.08194500669
601,-2272.7958797112897
636,-3486.738101197752
637,-35806.765628205954
638,-3486.738101197752
673,-2764.192171719693
674,-22612.756474528564
675,-2764.192171719693
710,0.0
711,0.0
712,0.0
2,1, 7,21, 0,17, 0.00,60.00,SummerDesignDay
525,-3393.1999690066536
526,-56622.874459262996
527,-3393.1999690066536
562,-3480.6657742950115
563,-45378.564032075694
564,-3480.6657742950115
599,-2215.157585561752
600,-27401.195342169667
601,-2215.157585561752
636,-3443.398222005559
637,-45311.18648471866
638,-3443.398222005559
673,-3028.648566528563
674,-28751.65542488571
675,-3028.648566528563
710,0.0
711,0.0
712,0.0
2,1, 7,21, 0,18, 0.00,60.00,SummerDesignDay
525,-3335.029189529134
526,-64925.34034028014
527,-3335.029189529134
562,-3377.2014859500428
563,-51575.02880509871
564,-3377.2014859500428
599,-2123.7452794720148
600,-31020.08480015046
601,-2123.7452794720148
636,-3347.289282634789
637,-51518.720316414234
638,-3347.289282634789
673,-3023.5328543797373
674,-32558.34360443304
675,-3023.5328543797373
710,0.0
711,0.0
712,0.0
2,1, 7,21, 0,19, 0.00,60.00,SummerDesignDay
525,-3255.2449477970163
526,-73164.50412207096
527,-3255.2449477970163
562,-3208.350862752463
563,-57641.0476405423
564,-3208.350862752463
599,-2004.3284535262055
600,-34583.81183041873
601,-2004.3284535262055
636,-3234.8875167078418
637,-57692.18628258971
638,-3234.8875167078418
673,-2727.4531416249315
674,-35888.09687387959
675,-2727.4531416249315
710,0.0
711,0.0
712,0.0
2,1, 7,21, 0,20, 0.00,60.00,SummerDesignDay
525,-6016.075532140457
526,-83795.684166272
527,-6016.075532140457
562,-5611.206205267484
563,-65864.81843283086
564,-5611.206205267484
599,-3349.157206809106
600,-39361.23122966843
601,-3349.157206809106
636,-5689.6479794848565
637,-65985.74218308117
638,-5689.6479794848565
673,-4071.182922906497
674,-40464.99630444637
675,-4071.182922906497
710,0.0
711,0.0
712,0.0
2,1, 7,21, 0,21, 0.00,60.00,SummerDesignDay
525,-6932.8764030913235
526,-69965.06414060034
527,-6932.8764030913235
562,-6268.399905203532
563,-55258.38105215616
564,-6268.399905203532
599,-3816.79977389681
600,-33141.61618085972
601,-3816.79977389681
636,-6318.649655169421
637,-55345.5395437051
638,-6318.649655169421
673,-4332.644463552243
674,-33931.96630876124
675,-4332.644463552243
710,0.0
711,0.0
712,0.0
2,1, 7,21, 0,22, 0.00,60.00,SummerDesignDay
525,-5502.922360909804
526,-55617.66602513712
527,-5502.922360909804
562,-4751.795213283184
563,-43725.149194414436
564,-4751.795213283184
599,-2879.2860148638115
600,-26225.354942904236
601,-2879.2860148638115
636,-4773.514222632516
637,-43767.58491059466
638,-4773.514222632516
673,-3140.6648028598624
674,-26688.81731223964
675,-3140.6648028598624
710,0.0
711,0.0
712,0.0
2,1, 7,21, 0,23, 0.00,60.00,SummerDesignDay
525,-5849.633488704089
526,-51986.422677613176
527,-5849.633488704089
562,-5035.26079445084
563,-41078.15575709187
564,-5035.26079445084
599,-3074.4813541058234
600,-24709.826222175794
601,-3074.4813541058234
636,-5044.157324554231
637,-41100.3375114729
638,-5044.157324554231
673,-3263.8842928192244
674,-25019.322497186426
675,-3263.8842928192244
710,0.0
711,0.0
712,0.0
2,1, 7,21, 0,24, 0.00,60.00,SummerDesignDay
525,-4676.857217362283
526,-46327.9871877862
527,-4676.857217362283
562,-3830.590823676955
563,-36308.90658332492
564,-3830.590823676955
599,-2311.403189325627
600,-21815.644455561218
601,-2311.403189325627
636,-3834.2272822388372
637,-36327.34424165934
638,-3834.2272822388372
673,-2377.4112107800106
674,-21929.749827770127
675,-2377.4112107800106
710,0.0
711,0.0
712,0.0
1,Phoenix Sky Harbor Intl Ap AZ USA TMY3 WMO#=722780,  33.45,-111.98,  -7.00, 337.00
2,1, 1, 1, 0, 1, 0.00,60.00,Holiday
525,0.0
526,-16941.802838981293
527,19547.958984742956
562,0.0
563,-11808.558849618463
564,15188.073017045237
599,0.0
600,-5957.015746781937
601,10339.640813213988
636,0.0
637,-9247.705162063254
638,18236.044863006446
673,0.0
674,-5980.875343003997
675,10131.737466796754
710,0.0
711,0.0
712,0.0
2,1, 1, 1, 0, 2, 0.00,60.00,Holiday
525,0.0
526,-20642.419726273114
527,25763.723592529113
562,0.0
563,-15060.59529487926
564,20479.361862757458
599,0.0
600,-7652.784852046803
601,13778.6657860834
636,0.0
637,-11895.668008579372
638,24181.006384301912
673,0.0
674,-7707.388617650345
675,13593.755444830096
710,0.0
711,0.0
712,0.0
2,1, 1, 1, 0, 3, 0.00,60.00,Holiday
525,0.0
526,-13594.265734327571
527,17777.75406753984
562,0.0
563,-9780.366504170635
564,14428.993388299306
599,0.0
600,-5123.357026434313
601,9804.441835539255
636,0.0
637,-7977.211537219281
638,17070.12086734191
673,0.0
674,-5173.390996173766
675,9729.171752939566
710,0.0
711,0.0
712,0.0
2,1, 1, 1, 0, 4, 0.00,60.00,Holiday
525,0.0
526,-13293.38953711092
527,18048.369693128858
562,0.0
563,-9468.655158779902
564,14698.834397983359
599,0.0
600,-5018.651938150294
601,9929.524784348194
636,0.0
637,-7821.101929106909
638,17166.211221479756
673,0.0
674,-5064.838099492886
675,9869.635073576559
710,0.0
711,0.0
712,0.0
2,1, 1, 1, 0, 5, 0.00,60.00,Holiday
525,0.0
526,-13041.9270692462
527,18308.24614190236
562,0.0
563,-9162.376943984931
564,14912.041097937166
599,0.0
600,-4897.331737086043
601,10001.211028463782
636,0.0
637,-7637.267281200896
638,17173.197026282036
673,0.0
674,-4940.250112917181
675,9952.601084793341
710,0.0
711,0.0
712,0.0
2,1, 1, 1, 0, 6, 0.00,60.00,Holiday
525,0.0
526,-12807.225762542783
527,18557.2199728014
562,0.0
563,-8889.020196346215
564,15580.10818829019
599,0.0
600,-4768.313734410166
601,10331.172199762375
636,0.0
637,-7486.053648600352
638,17705.260616482174
673,0.0
674,-4809.273181891868
675,10293.639632158747
710,0.0
711,0.0
712,0.0
2,1, 1, 1, 0, 7, 0.00,60.00,Holiday
525,0.0
526,-12584.496828696894
527,18789.265040790535
562,0.0
563,-8673.818876462066
564,16574.189505191018
599,0.0
600,-4600.700134048507
601,10753.722130548205
636,0.0
637,-7304.85145424142
638,18457.915266415617
673,0.0
674,-4636.325713349682
675,10717.677716179483
710,0.0
711,0.0
712,0.0
2,1, 1, 1, 0, 8, 0.00,60.00,Holiday
525,0.0
526,-12381.910234811978
527,19016.30095328024
562,0.0
563,-8437.807673267156
564,17012.818065296608
599,0.0
600,-4572.126918211736
601,10992.70980966418
636,0.0
637,-7129.663110100751
638,18865.725832576616
673,0.0
674,-4504.161757365812
675,11013.468245288363
710,0.0
711,0.0
712,0.0
2,1, 1, 1, 0, 9, 0.00,60.00,Holiday
525,0.0
526,-27019.331724124128
527,42012.47669805984
562,0.0
563,-19654.397961602986
564,34248.96163799345
599,0.0
600,-11370.552528317938
601,20984.9136271002
636,0.0
637,-15138.531574281113
638,39274.6652590302
673,0.0
674,-9481.704376170012
675,22943.40400301074
710,0.0
711,0.0
712,0.0
2,1, 1, 1, 0,10, 0.00,60.00,Holiday
525,0.0
526,-52097.35832588681
527,77506.0071746107
562,0.0
563,-43463.759268301794
564,56466.854734621564
599,0.0
600,-24756.761648167125
601,34953.53313531524
636,0.0
637,-28840.305566467552
638,70622.60455509056
673,0.0
674,-17954.304134456426
675,41393.16378754997
710,0.0
711,0.0
712,0.0
2,1, 1, 1, 0,11, 0.00,60.00,Holiday
525,0.0
526,-57563.74380906039
527,74309.62668474236
562,0.0
563,-51051.17149113888
564,49540.45061782998
599,0.0
600,-25989.469857493907
601,32891.3020974061
636,0.0
637,-29822.63426392341
638,68603.66027089882
673,0.0
674,-18547.233618990307
675,40278.967872300615
710,0.0
711,0.0
712,0.0
2,1, 1, 1, 0,12, 0.00,60.00,Holiday
525,0.0
526,-47848.5183762364
527,57396.90516112159
562,0.0
563,-46843.21966826612
564,33282.17963857707
599,0.0
600,-20909.908547420648
601,26050.586495291824
636,0.0
637,-25414.60591462138
638,53108.286572862686
673,0.0
674,-15816.647221117208
675,30857.828348855877
710,0.0
711,0.0
712,0.0
2,1, 1, 1, 0,13, 0.00,60.00,Holiday
525,0.0
526,-39099.81939475473
527,43633.63124890382
562,0.0
563,-42269.81848495684
564,21576.400288962228
599,0.0
600,-16677.857008308998
601,19898.718378488808
636,0.0
637,-21073.189642817717
638,39372.30803979151
673,0.0
674,-13430.441708897719
675,22959.909827562584
710,0.0
711,0.0
712,0.0
2,1, 1, 1, 0,14, 0.00,60.00,Holiday
525,0.0
526,-24053.297465133266
527,25051.4865366474
562,0.0
563,-27814.42443010953
564,10961.281817207275
599,0.0
600,-9937.414388596282
601,11324.981756181429
636,0.0
637,-12784.779418280785
638,21788.93808459206
673,0.0
674,-8327.049994154573
675,12730.269408382077
710,0.0
711,0.0
712,0.0
2,1, 1, 1, 0,15, 0.00,60.00,Holiday
525,0.0
526,-24974.421531545737
527,24171.346335694412
562,0.0
563,-28473.568571464344
564,9884.078448464294
599,0.0
600,-10117.421568854588
601,11025.823326619284
636,0.0
637,-13603.95238758447
638,21167.04375826118
673,0.0
674,-9711.874941383294
675,11813.825127466573
710,0.0
711,0.0
712,0.0
2,1, 1, 1, 0,16, 0.00,60.00,Holiday
525,0.0
526,-52547.001546011765
527,48949.403088122956
562,0.0
563,-54739.80140794541
564,21676.362381569135
599,0.0
600,-21529.372756147746
601,23002.131630696607
636,0.0
637,-30127.642119502347
638,44476.18427828924
673,0.0
674,-21986.55453861468
675,23331.183114718893
710,0.0
711,0.0
712,0.0
2,1, 1, 1, 0,17, 0.00,60.00,Holiday
525,0.0
526,-39368.53436973523
527,35920.23819645498
562,0.0
563,-39185.6667995443
564,17088.75954073461
599,0.0
600,-15833.852368246742
601,16975.05819900311
636,0.0
637,-22629.60847433831
638,32282.346447411914
673,0.0
674,-17698.59579327807
675,16122.546342326727
710,0.0
711,0.0
712,0.0
2,1, 1, 1, 0,18, 0.00,60.00,Holiday
525,0.0
526,-55205.374148323004
527,49971.24371414686
562,0.0
563,-50751.26584374911
564,27518.91298180063
599,0.0
600,-21912.429345973553
601,24510.189453470983
636,0.0
637,-32085.519532201364
638,46183.531282947864
673,0.0
674,-24311.00102614735
675,22896.56524642198
710,0.0
711,0.0
712,0.0
2,1, 1, 1, 0,19, 0.00,60.00,Holiday
525,0.0
526,-50737.30117158626
527,46775.05596402061
562,0.0
563,-43248.00210860947
564,28266.674446852063
599,0.0
600,-19667.11533699458
601,23354.895122372534
636,0.0
637,-29133.615386388625
638,43531.45284092273
673,0.0
674,-21372.384871778002
675,22320.04651007442
710,0.0
711,0.0
712,0.0
2,1, 1, 1, 0,20, 0.00,60.00,Holiday
525,0.0
526,-30889.3709916175
527,29299.714942029765
562,0.0
563,-24365.583201872887
564,18894.221049540614
599,0.0
600,-11483.455623826789
601,14640.71748831716
636,0.0
637,-17150.33606135532
638,26923.116918240587
673,0.0
674,-12221.058742675747
675,14139.915500655276
710,0.0
711,0.0
712,0.0
2,1, 1, 1, 0,21, 0.00,60.00,Holiday
525,0.0
526,-17250.1577710605
527,16882.49493687542
562,0.0
563,-12563.040103709847
564,11160.269133025044
599,0.0
600,-6009.623270698343
601,8171.198979262721
636,0.0
637,-9075.587822366759
638,14882.27158056458
673,0.0
674,-6264.791454351209
675,7927.649880628139
710,0.0
711,0.0
712,0.0
2,1, 1, 1, 0,22, 0.00,60.00,Holiday
525,0.0
526,-17064.378538621353
527,17129.60017743085
562,0.0
563,-12188.407640157762
564,11989.557460287933
599,0.0
600,-5758.064216939291
601,8304.039199348852
636,0.0
637,-8771.961200446018
638,15011.657487671133
673,0.0
674,-5997.558786677535
675,8183.6659909676355
710,0.0
711,0.0
712,0.0
2,1, 1, 1, 0,23, 0.00,60.00,Holiday
525,0.0
526,-16879.804351535025
527,17348.193854786146
562,0.0
563,-11539.162668966057
564,12740.17035658586
599,0.0
600,-5563.004344368336
601,8730.23386720665
636,0.0
637,-8195.973624325447
638,15021.213226252155
673,0.0
674,-5630.40417100345
675,8485.139631703287
710,0.0
711,0.0
712,0.0