Program Version,EnergyPlus, Version 8.6.0-198c6a3cff, YMD=2019.03.03 19:13
1,5,Environment Title[],Latitude[deg],Longitude[deg],Time Zone[],Elevation[m]
2,6,Day of Simulation[],Month[],Day of Month[],DST Indicator[1=yes 0=no],Hour[],StartMinute[],EndMinute[],DayType
3,3,Cumulative Day of Simulation[],Month[],Day of Month[],DST Indicator[1=yes 0=no],DayType  ! When Daily Meters Requested
4,2,Cumulative Days of Simulation[],Month[]  ! When Monthly Meters Requested
5,1,Cumulative Days of Simulation[] ! When Run Period Meters Requested
31,1,Electricity:Facility [J] !Hourly
831,1,ElectricityNet:Facility [J] !Hourly
1043,1,Gas:Facility [J] !Hourly
End of Data Dictionary
1,TUCSON-DAVIS-MONTHAN.AFB_AZ_USA ANN HTG 99.6% CONDNS DB,  33.45,-111.98,  -7.00, 337.00
2,1,12,21, 0, 1, 0.00,60.00,WinterDesignDay
31,16762037.837458834
831,16762037.837458833
1043,4478098.824013038
2,1,12,21, 0, 2, 0.00,60.00,WinterDesignDay
31,15150093.702259705
831,15150093.702259703
1043,2349974.4613064525
2,1,12,21, 0, 3, 0.00,60.00,WinterDesignDay
31,16205427.204350999
831,16205427.204350999
1043,5144281.353895236
2,1,12,21, 0, 4, 0.00,60.00,WinterDesignDay
31,15669885.80236891
831,15669885.802368908
1043,2572324.8444591669
2,1,12,21, 0, 5, 0.00,60.00,WinterDesignDay
31,16414096.86800087
831,16414096.868000869
1043,5120868.290706581
2,1,12,21, 0, 6, 0.00,60.00,WinterDesignDay
31,15648171.320777435
831,15648171.320777435
1043,2552858.954763857
2,1,12,21, 0, 7, 0.00,60.00,WinterDesignDay
31,17593913.10224413
831,17593913.10224413
1043,5094590.229034604
2,1,12,21, 0, 8, 0.00,60.00,WinterDesignDay
31,17505582.686089085
831,17505582.686089085
1043,181270.87337163784
2,1,12,21, 0, 9, 0.00,60.00,WinterDesignDay
31,19116568.425095336
831,19116568.425095336
1043,529977.6839719844
2,1,12,21, 0,10, 0.00,60.00,WinterDesignDay
31,16256958.55145082
831,16256958.551450817
1043,277399.9724745197
2,1,12,21, 0,11, 0.00,60.00,WinterDesignDay
31,19103612.33743025
831,19103612.33743025
1043,560663.2806751706
2,1,12,21, 0,12, 0.00,60.00,WinterDesignDay
31,16264934.683985178
831,16264934.683985174
1043,284806.0766839759
2,1,12,21, 0,13, 0.00,60.00,WinterDesignDay
31,19109484.184628227
831,19109484.184628227
1043,580383.5824723536
2,1,12,21, 0,14, 0.00,60.00,WinterDesignDay
31,16277086.2771729
831,16277086.277172905
1043,294275.2079054136
2,1,12,21, 0,15, 0.00,60.00,WinterDesignDay
31,19110523.02369536
831,19110523.02369536
1043,589319.4065818904
2,1,12,21, 0,16, 0.00,60.00,WinterDesignDay
31,16277747.834296639
831,16277747.83429664
1043,294893.88574421536
2,1,12,21, 0,17, 0.00,60.00,WinterDesignDay
31,19113221.68163793
831,19113221.681637929
1043,594266.5450559921
2,1,12,21, 0,18, 0.00,60.00,WinterDesignDay
31,18112672.268026536
831,18112672.26802653
1043,295586.4290941737
2,1,12,21, 0,19, 0.00,60.00,WinterDesignDay
31,19983725.81185514
831,19983725.81185514
1043,2624894.233934447
2,1,12,21, 0,20, 0.00,60.00,WinterDesignDay
31,18084693.2904124
831,18084693.290412398
1043,2597293.9203327985
2,1,12,21, 0,21, 0.00,60.00,WinterDesignDay
31,18876329.361702838
831,18876329.361702835
1043,4757774.213304339
2,1,12,21, 0,22, 0.00,60.00,WinterDesignDay
31,18160165.301415147
831,18160165.30141515
1043,2736142.1628573865
2,1,12,21, 0,23, 0.00,60.00,WinterDesignDay
31,18882995.288219394
831,18882995.288219397
1043,4746845.671644144
2,1,12,21, 0,24, 0.00,60.00,WinterDesignDay
31,18159570.452565545
831,18159570.452565545
1043,2709257.344828911
1,TUCSON-DAVIS-MONTHAN.AFB_AZ_USA ANN CLG .4% CONDNS DB=>MWB,  33.45,-111.98,  -7.00, 337.00
2,1, 7,21, 0, 1, 0.00,60.00,SummerDesignDay
31,42542516.00419055
831,42542516.00419056
1043,0.0
2,1, 7,21, 0, 2, 0.00,60.00,SummerDesignDay
31,40598141.97429524
831,40598141.97429524
1043,0.0
2,1, 7,21, 0, 3, 0.00,60.00,SummerDesignDay
31,42171242.8669131
831,42171242.8669131
1043,0.0
2,1, 7,21, 0, 4, 0.00,60.00,SummerDesignDay
31,40187000.2681501
831,40187000.2681501
1043,0.0
2,1, 7,21, 0, 5, 0.00,60.00,SummerDesignDay
31,43657210.67178732
831,43657210.67178732
1043,0.0
2,1, 7,21, 0, 6, 0.00,60.00,SummerDesignDay
31,40110805.633580047
831,40110805.63358004
1043,0.0
2,1, 7,21, 0, 7, 0.00,60.00,SummerDesignDay
31,47276724.5665742
831,47276724.5665742
1043,0.0
2,1, 7,21, 0, 8, 0.00,60.00,SummerDesignDay
31,46864125.1695019
831,46864125.16950191
1043,0.0
2,1, 7,21, 0, 9, 0.00,60.00,SummerDesignDay
31,48428595.307824898
831,48428595.307824898
1043,0.0
2,1, 7,21, 0,10, 0.00,60.00,SummerDesignDay
31,50366212.928221527
831,50366212.92822153
1043,0.0
2,1, 7,21, 0,11, 0.00,60.00,SummerDesignDay
31,52099817.171881239
831,52099817.171881239
1043,0.0
2,1, 7,21, 0,12, 0.00,60.00,SummerDesignDay
31,53458137.986736457
831,53458137.98673646
1043,0.0
2,1, 7,21, 0,13, 0.00,60.00,SummerDesignDay
31,54716675.6234291
831,54716675.6234291
1043,0.0
2,1, 7,21, 0,14, 0.00,60.00,SummerDesignDay
31,55519795.95860822
831,55519795.958608228
1043,0.0
2,1, 7,21, 0,15, 0.00,60.00,SummerDesignDay
31,55925994.31214176
831,55925994.31214176
1043,0.0
2,1, 7,21, 0,16, 0.00,60.00,SummerDesignDay
31,56238932.25803454
831,56238932.25803455
1043,0.0
2,1, 7,21, 0,17, 0.00,60.00,SummerDesignDay
31,55820693.29179302
831,55820693.29179301
1043,0.0
2,1, 7,21, 0,18, 0.00,60.00,SummerDesignDay
31,54957598.77351221
831,54957598.77351221
1043,0.0
2,1, 7,21, 0,19, 0.00,60.00,SummerDesignDay
31,54103209.17087444
831,54103209.17087445
1043,0.0
2,1, 7,21, 0,20, 0.00,60.00,SummerDesignDay
31,48208156.7304617
831,48208156.7304617
1043,0.0
2,1, 7,21, 0,21, 0.00,60.00,SummerDesignDay
31,45009597.09283004
831,45009597.09283004
1043,0.0
2,1, 7,21, 0,22, 0.00,60.00,SummerDesignDay
31,47100741.9481166
831,47100741.9481166
1043,0.0
2,1, 7,21, 0,23, 0.00,60.00,SummerDesignDay
31,42476069.98178907
831,42476069.98178907
1043,0.0
2,1, 7,21, 0,24, 0.00,60.00,SummerDesignDay
31,43865422.05098801
831,43865422.05098802
1043,0.0
1,Phoenix Sky Harbor Intl Ap AZ USA TMY3 WMO#=722780,  33.45,-111.98,  -7.00, 337.00
2,1, 1, 1, 0, 1, 0.00,60.00,Holiday
31,5504338.596677196
831,5504338.596677196
1043,0.0
2,1, 1, 1, 0, 2, 0.00,60.00,Holiday
31,5504338.596677196
831,5504338.596677196
1043,0.0
2,1, 1, 1, 0, 3, 0.00,60.00,Holiday
31,5504338.596677196
831,5504338.596677196
1043,0.0
2,1, 1, 1, 0, 4, 0.00,60.00,Holiday
31,5504338.596677196
831,5504338.596677196
1043,0.0
2,1, 1, 1, 0, 5, 0.00,60.00,Holiday
31,5504338.596677196
831,5504338.596677196
1043,0.0
2,1, 1, 1, 0, 6, 0.00,60.00,Holiday
31,5504338.596677196
831,5504338.596677196
1043,0.0
2,1, 1, 1, 0, 7, 0.00,60.00,Holiday
31,6695938.596677196
831,6695938.596677196
1043,0.0
2,1, 1, 1, 0, 8, 0.00,60.00,Holiday
31,5595598.596677196
831,5595598.596677196
1043,0.0
2,1, 1, 1, 0, 9, 0.00,60.00,Holiday
31,4495258.596677196
831,4495258.596677197
1043,0.0
2,1, 1, 1, 0,10, 0.00,60.00,Holiday
31,4495258.596677196
831,4495258.596677197
1043,0.0
2,1, 1, 1, 0,11, 0.00,60.00,Holiday
31,4495258.596677196
831,4495258.596677196
1043,0.0
2,1, 1, 1, 0,12, 0.00,60.00,Holiday
31,4495258.596677196
831,4495258.596677196
1043,0.0
2,1, 1, 1, 0,13, 0.00,60.00,Holiday
31,4495258.596677196
831,4495258.596677197
1043,0.0
2,1, 1, 1, 0,14, 0.00,60.00,Holiday
31,4495258.596677196
831,4495258.596677196
1043,0.0
2,1, 1, 1, 0,15, 0.00,60.00,Holiday
31,4495258.596677196
831,4495258.596677196
1043,0.0
2,1, 1, 1, 0,16, 0.00,60.00,Holiday
31,4495258.596677196
831,4495258.596677196
1043,0.0
2,1, 1, 1, 0,17, 0.00,60.00,Holiday
31,4495258.596677196
831,4495258.596677197
1043,0.0
2,1, 1, 1, 0,18, 0.00,60.00,Holiday
31,5962378.596677196
831,5962378.596677196
1043,0.0
2,1, 1, 1, 0,19, 0.00,60.00,Holiday
31,6695938.596677196
831,6695938.596677196
1043,0.0
2,1, 1, 1, 0,20, 0.00,60.00,Holiday
31,5894038.596677196
831,5894038.596677195
1043,0.0
2,1, 1, 1, 0,21, 0.00,60.00,Holiday
31,5894038.596677196
831,5894038.596677196
1043,0.0
2,1, 1, 1, 0,22, 0.00,60.00,Holiday
31,5894038.596677196
831,5894038.596677196
1043,0.0
2,1, 1, 1, 0,23, 0.00,60.00,Holiday
31,5894038.596677196
831,5894038.596677196
1043,0.0
2,1, 1, 1, 0,24, 0.00,60.00,Holiday
31,5894038.596677196
831,5894038.596677196
1043,0.0
2,2, 1, 2, 0, 1, 0.00,60.00,Monday
31,8569604.825749658
831,8569604.825749658
1043,0.0
2,2, 1, 2, 0, 2, 0.00,60.00,Monday
31,8569604.825749658
831,8569604.825749658
1043,0.0
2,2, 1, 2, 0, 3, 0.00,60.00,Monday
31,8569604.825749658
831,8569604.825749658
1043,0.0
2,2, 1, 2, 0, 4, 0.00,60.00,Monday
31,8569604.825749658
831,8569604.825749658
1043,0.0
2,2, 1, 2, 0, 5, 0.00,60.00,Monday
31,8569604.825749658
831,8569604.825749658
1043,0.0
2,2, 1, 2, 0, 6, 0.00,60.00,Monday
31,8569604.825749658
831,8569604.825749658
1043,0.0
2,2, 1, 2, 0, 7, 0.00,60.00,Monday
31,19824469.38587026
831,19824469.385870264
1043,0.0
2,2, 1, 2, 0, 8, 0.00,60.00,Monday
31,21932557.584632469
831,21932557.584632469
1043,0.0
2,2, 1, 2, 0, 9, 0.00,60.00,Monday
31,30270163.182976214
831,30270163.18297621
1043,0.0
2,2, 1, 2, 0,10, 0.00,60.00,Monday
31,29589581.890994107
831,29589581.8909941
1043,0.0
2,2, 1, 2, 0,11, 0.00,60.00,Monday
31,29840074.2329536
831,29840074.232953594
1043,0.0
2,2, 1, 2, 0,12, 0.00,60.00,Monday
31,30620879.142285848
831,30620879.142285844
1043,0.0
2,2, 1, 2, 0,13, 0.00,60.00,Monday
31,28065439.756998715
831,28065439.756998719
1043,0.0
2,2, 1, 2, 0,14, 0.00,60.00,Monday
31,31359757.126333059
831,31359757.12633305
1043,0.0
2,2, 1, 2, 0,15, 0.00,60.00,Monday
31,32078097.86011605
831,32078097.860116044
1043,0.0
2,2, 1, 2, 0,16, 0.00,60.00,Monday
31,32645142.57002341
831,32645142.570023408
1043,0.0
2,2, 1, 2, 0,17, 0.00,60.00,Monday
31,32918597.312507359
831,32918597.312507359
1043,0.0
2,2, 1, 2, 0,18, 0.00,60.00,Monday
31,23054277.404457153
831,23054277.404457153
1043,0.0
2,2, 1, 2, 0,19, 0.00,60.00,Monday
31,17630523.28614177
831,17630523.286141777
1043,0.0
2,2, 1, 2, 0,20, 0.00,60.00,Monday
31,10953154.258345897
831,10953154.258345895
1043,0.0
2,2, 1, 2, 0,21, 0.00,60.00,Monday
31,9737784.395628443
831,9737784.395628443
1043,0.0
2,2, 1, 2, 0,22, 0.00,60.00,Monday
31,9737784.395628443
831,9737784.395628443
1043,0.0
2,2, 1, 2, 0,23, 0.00,60.00,Monday
31,8643951.519120457
831,8643951.519120455
1043,0.0
2,2, 1, 2, 0,24, 0.00,60.00,Monday
31,6297449.08321209
831,6297449.08321209
1043,0.0
2,3, 1, 3, 0, 1, 0.00,60.00,Tuesday
31,8569604.825749658
831,8569604.825749658
1043,0.0
2,3, 1, 3, 0, 2, 0.00,60.00,Tuesday
31,8569604.825749658
831,8569604.825749658
1043,0.0
2,3, 1, 3, 0, 3, 0.00,60.00,Tuesday
31,8569604.825749658
831,8569604.825749658
1043,0.0
2,3, 1, 3, 0, 4, 0.00,60.00,Tuesday
31,8569604.825749658
831,8569604.825749658
1043,0.0
2,3, 1, 3, 0, 5, 0.00,60.00,Tuesday
31,8569604.825749658
831,8569604.825749658
1043,0.0
2,3, 1, 3, 0, 6, 0.00,60.00,Tuesday
31,8569604.825749658
831,8569604.825749658
1043,0.0
2,3, 1, 3, 0, 7, 0.00,60.00,Tuesday
31,19282709.187815735
831,19282709.18781573
1043,0.0
2,3, 1, 3, 0, 8, 0.00,60.00,Tuesday
31,22298801.025848308
831,22298801.025848308
1043,0.0
2,3, 1, 3, 0, 9, 0.00,60.00,Tuesday
31,29963185.761119524
831,29963185.761119516
1043,0.0
2,3, 1, 3, 0,10, 0.00,60.00,Tuesday
31,29648910.78735596
831,29648910.787355953
1043,0.0
2,3, 1, 3, 0,11, 0.00,60.00,Tuesday
31,30178390.77744498
831,30178390.77744498
1043,0.0
2,3, 1, 3, 0,12, 0.00,60.00,Tuesday
31,30940432.797064686
831,30940432.797064678
1043,0.0
2,3, 1, 3, 0,13, 0.00,60.00,Tuesday
31,28328723.574622014
831,28328723.574622018
1043,0.0
2,3, 1, 3, 0,14, 0.00,60.00,Tuesday
31,31554575.639780716
831,31554575.639780709
1043,0.0
2,3, 1, 3, 0,15, 0.00,60.00,Tuesday
31,32203800.435479054
831,32203800.435479054
1043,0.0
2,3, 1, 3, 0,16, 0.00,60.00,Tuesday
31,32515877.25105266
831,32515877.251052657
1043,0.0
2,3, 1, 3, 0,17, 0.00,60.00,Tuesday
31,33162086.095494819
831,33162086.095494819
1043,0.0
2,3, 1, 3, 0,18, 0.00,60.00,Tuesday
31,23265804.22084248
831,23265804.22084248
1043,0.0
2,3, 1, 3, 0,19, 0.00,60.00,Tuesday
31,17630523.28614177
831,17630523.286141777
1043,0.0
2,3, 1, 3, 0,20, 0.00,60.00,Tuesday
31,10953154.258345897
831,10953154.258345895
1043,0.0
2,3, 1, 3, 0,21, 0.00,60.00,Tuesday
31,9737784.395628443
831,9737784.395628443
1043,0.0
2,3, 1, 3, 0,22, 0.00,60.00,Tuesday
31,9737784.395628443
831,9737784.395628443
1043,0.0
2,3, 1, 3, 0,23, 0.00,60.00,Tuesday
31,8643951.519120457
831,8643951.519120455
1043,0.0
2,3, 1, 3, 0,24, 0.00,60.00,Tuesday
31,6297449.08321209
831,6297449.08321209
1043,0.0
2,4, 1, 4, 0, 1, 0.00,60.00,Wednesday
31,8569604.825749658
831,8569604.825749658
1043,0.0
2,4, 1, 4, 0, 2, 0.00,60.00,Wednesday
31,8569604.825749658
831,8569604.825749658
1043,0.0
2,4, 1, 4, 0, 3, 0.00,60.00,Wednesday
31,8569604.825749658
831,8569604.825749658
1043,0.0
2,4, 1, 4, 0, 4, 0.00,60.00,Wednesday
31,8569604.825749658
831,8569604.825749658
1043,0.0
2,4, 1, 4, 0, 5, 0.00,60.00,Wednesday
31,8569604.825749658
831,8569604.825749658
1043,0.0
2,4, 1, 4, 0, 6, 0.00,60.00,Wednesday
31,8569604.825749658
831,8569604.825749658
1043,0.0
2,4, 1, 4, 0, 7, 0.00,60.00,Wednesday
31,20776040.516900056
831,20776040.516900056
1043,0.0
2,4, 1, 4, 0, 8, 0.00,60.00,Wednesday
31,23841509.014151098
831,23841509.014151098
1043,0.0
2,4, 1, 4, 0, 9, 0.00,60.00,Wednesday
31,29885951.69376671
831,29885951.693766707
1043,0.0
2,4, 1, 4, 0,10, 0.00,60.00,Wednesday
31,29795783.647378394
831,29795783.647378394
1043,0.0
2,4, 1, 4, 0,11, 0.00,60.00,Wednesday
31,30273776.285813005
831,30273776.285813005
1043,0.0
2,4, 1, 4, 0,12, 0.00,60.00,Wednesday
31,31071538.668004734
831,31071538.668004734
1043,0.0
2,4, 1, 4, 0,13, 0.00,60.00,Wednesday
31,28892054.042887354
831,28892054.042887357
1043,0.0
2,4, 1, 4, 0,14, 0.00,60.00,Wednesday
31,33063135.29076329
831,33063135.29076329
1043,0.0
2,4, 1, 4, 0,15, 0.00,60.00,Wednesday
31,34113605.96815563
831,34113605.96815562
1043,0.0
2,4, 1, 4, 0,16, 0.00,60.00,Wednesday
31,34766825.50634131
831,34766825.5063413
1043,0.0
2,4, 1, 4, 0,17, 0.00,60.00,Wednesday
31,34822862.88088183
831,34822862.88088183
1043,0.0
2,4, 1, 4, 0,18, 0.00,60.00,Wednesday
31,23838979.69374709
831,23838979.693747086
1043,0.0
2,4, 1, 4, 0,19, 0.00,60.00,Wednesday
31,17630523.28614177
831,17630523.28614177
1043,0.0
2,4, 1, 4, 0,20, 0.00,60.00,Wednesday
31,10953154.258345897
831,10953154.258345895
1043,0.0
2,4, 1, 4, 0,21, 0.00,60.00,Wednesday
31,9737784.395628443
831,9737784.395628443
1043,0.0
2,4, 1, 4, 0,22, 0.00,60.00,Wednesday
31,9737784.395628443
831,9737784.395628443
1043,0.0
2,4, 1, 4, 0,23, 0.00,60.00,Wednesday
31,8643951.519120457
831,8643951.519120455
1043,0.0
2,4, 1, 4, 0,24, 0.00,60.00,Wednesday
31,6297449.08321209
831,6297449.08321209
1043,0.0
2,5, 1, 5, 0, 1, 0.00,60.00,Thursday
31,8569604.825749658
831,8569604.825749658
1043,0.0
2,5, 1, 5, 0, 2, 0.00,60.00,Thursday
31,8569604.825749658
831,8569604.825749658
1043,0.0
2,5, 1, 5, 0, 3, 0.00,60.00,Thursday
31,8569604.825749658
831,8569604.825749658
1043,0.0
2,5, 1, 5, 0, 4, 0.00,60.00,Thursday
31,8569604.825749658
831,8569604.825749658
1043,0.0
2,5, 1, 5, 0, 5, 0.00,60.00,Thursday
31,8569604.825749658
831,8569604.825749658
1043,0.0
2,5, 1, 5, 0, 6, 0.00,60.00,Thursday
31,8569604.825749658
831,8569604.825749658
1043,0.0
2,5, 1, 5, 0, 7, 0.00,60.00,Thursday
31,20449895.41768442
831,20449895.417684426
1043,0.0
2,5, 1, 5, 0, 8, 0.00,60.00,Thursday
31,24125714.404407897
831,24125714.404407897
1043,0.0
2,5, 1, 5, 0, 9, 0.00,60.00,Thursday
31,29898531.960946993
831,29898531.960946993
1043,0.0
2,5, 1, 5, 0,10, 0.00,60.00,Thursday
31,29795783.647378394
831,29795783.647378386
1043,0.0
2,5, 1, 5, 0,11, 0.00,60.00,Thursday
31,30377391.71724783
831,30377391.71724783
1043,0.0
2,5, 1, 5, 0,12, 0.00,60.00,Thursday
31,31239614.01319891
831,31239614.01319891
1043,0.0
2,5, 1, 5, 0,13, 0.00,60.00,Thursday
31,28976759.424688717
831,28976759.42468871
1043,0.0
2,5, 1, 5, 0,14, 0.00,60.00,Thursday
31,33342640.554657967
831,33342640.554657967
1043,0.0
2,5, 1, 5, 0,15, 0.00,60.00,Thursday
31,34123088.16433355
831,34123088.164333548
1043,0.0
2,5, 1, 5, 0,16, 0.00,60.00,Thursday
31,34424582.22126877
831,34424582.221268769
1043,0.0
2,5, 1, 5, 0,17, 0.00,60.00,Thursday
31,34409928.78139879
831,34409928.78139879
1043,0.0
2,5, 1, 5, 0,18, 0.00,60.00,Thursday
31,23478941.648714667
831,23478941.64871467
1043,0.0
2,5, 1, 5, 0,19, 0.00,60.00,Thursday
31,17630523.28614177
831,17630523.286141777
1043,0.0
2,5, 1, 5, 0,20, 0.00,60.00,Thursday
31,10953154.258345897
831,10953154.258345895
1043,0.0
2,5, 1, 5, 0,21, 0.00,60.00,Thursday
31,9737784.395628443
831,9737784.395628443
1043,0.0
2,5, 1, 5, 0,22, 0.00,60.00,Thursday
31,9737784.395628443
831,9737784.395628443
1043,0.0
2,5, 1, 5, 0,23, 0.00,60.00,Thursday
31,8643951.519120457
831,8643951.519120455
1043,0.0
2,5, 1, 5, 0,24, 0.00,60.00,Thursday
31,6297449.08321209
831,6297449.08321209
1043,0.0
2,6, 1, 6, 0, 1, 0.00,60.00,Friday
31,8569604.825749658
831,8569604.825749658
1043,0.0
2,6, 1, 6, 0, 2, 0.00,60.00,Friday
31,8569604.825749658
831,8569604.825749658
1043,0.0
2,6, 1, 6, 0, 3, 0.00,60.00,Friday
31,8569604.825749658
831,8569604.825749658
1043,0.0
2,6, 1, 6, 0, 4, 0.00,60.00,Friday
31,8569604.825749658
831,8569604.825749658
1043,0.0
2,6, 1, 6, 0, 5, 0.00,60.00,Friday
31,8569604.825749658
831,8569604.825749658
1043,0.0
2,6, 1, 6, 0, 6, 0.00,60.00,Friday
31,8569604.825749658
831,8569604.825749658
1043,0.0
2,6, 1, 6, 0, 7, 0.00,60.00,Friday
31,21785834.48640242
831,21785834.48640242
1043,0.0
2,6, 1, 6, 0, 8, 0.00,60.00,Friday
31,25087785.395161328
831,25087785.39516133
1043,0.0
2,6, 1, 6, 0, 9, 0.00,60.00,Friday
31,30255984.74884244
831,30255984.748842434
1043,0.0
2,6, 1, 6, 0,10, 0.00,60.00,Friday
31,29538031.45189803
831,29538031.451898025
1043,0.0
2,6, 1, 6, 0,11, 0.00,60.00,Friday
31,29505589.287639336
831,29505589.28763933
1043,0.0
2,6, 1, 6, 0,12, 0.00,60.00,Friday
31,30339268.279279848
831,30339268.27927985
1043,0.0
2,6, 1, 6, 0,13, 0.00,60.00,Friday
31,28067351.617705104
831,28067351.617705108
1043,0.0
2,6, 1, 6, 0,14, 0.00,60.00,Friday
31,32357246.952045878
831,32357246.95204587
1043,0.0
2,6, 1, 6, 0,15, 0.00,60.00,Friday
31,33407424.359811397
831,33407424.359811397
1043,0.0
2,6, 1, 6, 0,16, 0.00,60.00,Friday
31,34275095.6168861
831,34275095.6168861
1043,0.0
2,6, 1, 6, 0,17, 0.00,60.00,Friday
31,34456155.197342339
831,34456155.197342339
1043,0.0
2,6, 1, 6, 0,18, 0.00,60.00,Friday
31,23689470.870619123
831,23689470.870619123
1043,0.0
2,6, 1, 6, 0,19, 0.00,60.00,Friday
31,17630523.28614177
831,17630523.28614177
1043,0.0
2,6, 1, 6, 0,20, 0.00,60.00,Friday
31,10953154.258345897
831,10953154.258345895
1043,0.0
2,6, 1, 6, 0,21, 0.00,60.00,Friday
31,9737784.395628443
831,9737784.395628443
1043,0.0
2,6, 1, 6, 0,22, 0.00,60.00,Friday
31,9737784.395628443
831,9737784.395628443
1043,0.0
2,6, 1, 6, 0,23, 0.00,60.00,Friday
31,8643951.519120457
831,8643951.519120455
1043,0.0
2,6, 1, 6, 0,24, 0.00,60.00,Friday
31,6297449.08321209
831,6297449.08321209
1043,0.0
2,7, 1, 7, 0, 1, 0.00,60.00,Saturday
31,5504338.596677196
831,5504338.596677196
1043,0.0
2,7, 1, 7, 0, 2, 0.00,60.00,Saturday
31,5504338.596677196
831,5504338.596677196
1043,0.0
2,7, 1, 7, 0, 3, 0.00,60.00,Saturday
31,5504338.596677196
831,5504338.596677196
1043,0.0
2,7, 1, 7, 0, 4, 0.00,60.00,Saturday
31,5504338.596677196
831,5504338.596677196
1043,0.0
2,7, 1, 7, 0, 5, 0.00,60.00,Saturday
31,5504338.596677196
831,5504338.596677196
1043,0.0
2,7, 1, 7, 0, 6, 0.00,60.00,Saturday
31,5504338.596677196
831,5504338.596677196
1043,0.0
2,7, 1, 7, 0, 7, 0.00,60.00,Saturday
31,6695938.596677196
831,6695938.596677196
1043,0.0
2,7, 1, 7, 0, 8, 0.00,60.00,Saturday
31,5595598.596677196
831,5595598.596677196
1043,0.0
2,7, 1, 7, 0, 9, 0.00,60.00,Saturday
31,4495258.596677196
831,4495258.596677197
1043,0.0
2,7, 1, 7, 0,10, 0.00,60.00,Saturday
31,4495258.596677196
831,4495258.596677196
1043,0.0
2,7, 1, 7, 0,11, 0.00,60.00,Saturday
31,4495258.596677196
831,4495258.596677196
1043,0.0
2,7, 1, 7, 0,12, 0.00,60.00,Saturday
31,4495258.596677196
831,4495258.596677196
1043,0.0
2,7, 1, 7, 0,13, 0.00,60.00,Saturday
31,4495258.596677196
831,4495258.596677197
1043,0.0
2,7, 1, 7, 0,14, 0.00,60.00,Saturday
31,4495258.596677196
831,4495258.596677196
1043,0.0
2,7, 1, 7, 0,15, 0.00,60.00,Saturday
31,4495258.596677196
831,4495258.596677196
1043,0.0
2,7, 1, 7, 0,16, 0.00,60.00,Saturday
31,4495258.596677196
831,4495258.596677196
1043,0.0
2,7, 1, 7, 0,17, 0.00,60.00,Saturday
31,4495258.596677196
831,4495258.596677197
1043,0.0
2,7, 1, 7, 0,18, 0.00,60.00,Saturday
31,5595598.596677196
831,5595598.596677196
1043,0.0
2,7, 1, 7, 0,19, 0.00,60.00,Saturday
31,6695938.596677196
831,6695938.596677196
1043,0.0
2,7, 1, 7, 0,20, 0.00,60.00,Saturday
31,5894038.596677196
831,5894038.596677195
1043,0.0
2,7, 1, 7, 0,21, 0.00,60.00,Saturday
31,5894038.596677196
831,5894038.596677196
1043,0.0
2,7, 1, 7, 0,22, 0.00,60.00,Saturday
31,5894038.596677196
831,5894038.596677196
1043,0.0
2,7, 1, 7, 0,23, 0.00,60.00,Saturday
31,5894038.596677196
831,5894038.596677196
1043,0.0
2,7, 1, 7, 0,24, 0.00,60.00,Saturday
31,5894038.596677196
831,5894038.596677196
1043,0.0
2,8, 1, 8, 0, 1, 0.00,60.00,Sunday
31,5504338.596677196
831,5504338.596677196
1043,0.0
2,8, 1, 8, 0, 2, 0.00,60.00,Sunday
31,5504338.596677196
831,5504338.596677196
1043,0.0
2,8, 1, 8, 0, 3, 0.00,60.00,Sunday
31,5504338.596677196
831,5504338.596677196
1043,0.0
2,8, 1, 8, 0, 4, 0.00,60.00,Sunday
31,5504338.596677196
831,5504338.596677196
1043,0.0
2,8, 1, 8, 0, 5, 0.00,60.00,Sunday
31,5504338.596677196
831,5504338.596677196
1043,0.0
2,8, 1, 8, 0, 6, 0.00,60.00,Sunday
31,5504338.596677196
831,5504338.596677196
1043,0.0
2,8, 1, 8, 0, 7, 0.00,60.00,Sunday
31,6695938.596677196
831,6695938.596677196
1043,0.0
2,8, 1, 8, 0, 8, 0.00,60.00,Sunday
31,5595598.596677196
831,5595598.596677196
1043,0.0
2,8, 1, 8, 0, 9, 0.00,60.00,Sunday
31,4495258.596677196
831,4495258.596677196
1043,0.0
2,8, 1, 8, 0,10, 0.00,60.00,Sunday
31,4495258.596677196
831,4495258.596677197
1043,0.0
2,8, 1, 8, 0,11, 0.00,60.00,Sunday
31,4495258.596677196
831,4495258.596677197
1043,0.0
2,8, 1, 8, 0,12, 0.00,60.00,Sunday
31,4495258.596677196
831,4495258.596677197
1043,0.0
2,8, 1, 8, 0,13, 0.00,60.00,Sunday
31,4495258.596677196
831,4495258.596677197
1043,0.0
2,8, 1, 8, 0,14, 0.00,60.00,Sunday
31,4495258.596677196
831,4495258.596677196
1043,0.0
2,8, 1, 8, 0,15, 0.00,60.00,Sunday
31,4495258.596677196
831,4495258.596677196
1043,0.0
2,8, 1, 8, 0,16, 0.00,60.00,Sunday
31,4495258.596677196
831,4495258.596677197
1043,0.0
2,8, 1, 8, 0,17, 0.00,60.00,Sunday
31,4495258.596677196
831,4495258.596677196
1043,0.0
2,8, 1, 8, 0,18, 0.00,60.00,Sunday
31,5595598.596677196
831,5595598.596677196
1043,0.0
2,8, 1, 8, 0,19, 0.00,60.00,Sunday
31,6695938.596677196
831,6695938.596677195
1043,0.0
2,8, 1, 8, 0,20, 0.00,60.00,Sunday
31,5894038.596677196
831,5894038.596677195
1043,0.0
2,8, 1, 8, 0,21, 0.00,60.00,Sunday
31,5894038.596677196
831,5894038.596677196
1043,0.0
2,8, 1, 8, 0,22, 0.00,60.00,Sunday
31,5894038.596677196
831,5894038.596677196
1043,0.0
2,8, 1, 8, 0,23, 0.00,60.00,Sunday
31,5894038.596677196
831,5894038.596677196
1043,0.0
2,8, 1, 8, 0,24, 0.00,60.00,Sunday
31,5894038.596677196
831,5894038.596677196
1043,0.0
2,9, 1, 9, 0, 1, 0.00,60.00,Monday
31,8569604.825749658
831,8569604.825749658
1043,0.0
2,9, 1, 9, 0, 2, 0.00,60.00,Monday
31,8569604.825749658
831,8569604.825749658
1043,0.0
2,9, 1, 9, 0, 3, 0.00,60.00,Monday
31,8569604.825749658
831,8569604.825749658
1043,0.0
2,9, 1, 9, 0, 4, 0.00,60.00,Monday
31,8569604.825749658
831,8569604.825749658
1043,0.0
2,9, 1, 9, 0, 5, 0.00,60.00,Monday
31,8569604.825749658
831,8569604.825749658
1043,0.0
2,9, 1, 9, 0, 6, 0.00,60.00,Monday
31,8569604.825749658
831,8569604.825749658
1043,0.0
2,9, 1, 9, 0, 7, 0.00,60.00,Monday
31,18616990.029576024
831,18616990.029576027
1043,0.0
2,9, 1, 9, 0, 8, 0.00,60.00,Monday
31,21235736.9274526
831,21235736.9274526
1043,0.0
2,9, 1, 9, 0, 9, 0.00,60.00,Monday
31,29956696.29358846
831,29956696.29358845
1043,0.0
2,9, 1, 9, 0,10, 0.00,60.00,Monday
31,29678839.97836414
831,29678839.978364134
1043,0.0
2,9, 1, 9, 0,11, 0.00,60.00,Monday
31,30862857.164649223
831,30862857.164649227
1043,0.0
2,9, 1, 9, 0,12, 0.00,60.00,Monday
31,31996013.106092629
831,31996013.106092626
1043,0.0
2,9, 1, 9, 0,13, 0.00,60.00,Monday
31,30071013.16671344
831,30071013.16671344
1043,0.0
2,9, 1, 9, 0,14, 0.00,60.00,Monday
31,33810222.02268825
831,33810222.02268824
1043,0.0
2,9, 1, 9, 0,15, 0.00,60.00,Monday
31,34617054.768373068
831,34617054.76837306
1043,0.0
2,9, 1, 9, 0,16, 0.00,60.00,Monday
31,34946352.07855365
831,34946352.07855364
1043,0.0
2,9, 1, 9, 0,17, 0.00,60.00,Monday
31,35225011.620446298
831,35225011.620446298
1043,0.0
2,9, 1, 9, 0,18, 0.00,60.00,Monday
31,24416172.740966925
831,24416172.740966925
1043,0.0
2,9, 1, 9, 0,19, 0.00,60.00,Monday
31,17630523.28614177
831,17630523.28614177
1043,0.0
2,9, 1, 9, 0,20, 0.00,60.00,Monday
31,10953154.258345897
831,10953154.258345895
1043,0.0
2,9, 1, 9, 0,21, 0.00,60.00,Monday
31,9737784.395628443
831,9737784.395628443
1043,0.0
2,9, 1, 9, 0,22, 0.00,60.00,Monday
31,9737784.395628443
831,9737784.395628443
1043,0.0
2,9, 1, 9, 0,23, 0.00,60.00,Monday
31,8643951.519120457
831,8643951.519120455
1043,0.0
2,9, 1, 9, 0,24, 0.00,60.00,Monday
31,6297449.08321209
831,6297449.08321209
1043,0.0
2,10, 1,10, 0, 1, 0.00,60.00,Tuesday
31,8569604.825749658
831,8569604.825749658
1043,0.0
2,10, 1,10, 0, 2, 0.00,60.00,Tuesday
31,8569604.825749658
831,8569604.825749658
1043,0.0
2,10, 1,10, 0, 3, 0.00,60.00,Tuesday
31,8569604.825749658
831,8569604.825749658
1043,0.0
2,10, 1,10, 0, 4, 0.00,60.00,Tuesday
31,8569604.825749658
831,8569604.825749658
1043,0.0
2,10, 1,10, 0, 5, 0.00,60.00,Tuesday
31,8569604.825749658
831,8569604.825749658
1043,0.0
2,10, 1,10, 0, 6, 0.00,60.00,Tuesday
31,8569604.825749658
831,8569604.825749658
1043,0.0
2,10, 1,10, 0, 7, 0.00,60.00,Tuesday
31,18512784.648062704
831,18512784.648062704
1043,0.0
2,10, 1,10, 0, 8, 0.00,60.00,Tuesday
31,20707283.580781148
831,20707283.58078115
1043,0.0
2,10, 1,10, 0, 9, 0.00,60.00,Tuesday
31,30840501.966666808
831,30840501.96666681
1043,0.0
2,10, 1,10, 0,10, 0.00,60.00,Tuesday
31,30335580.07349971
831,30335580.0734997
1043,0.0
2,10, 1,10, 0,11, 0.00,60.00,Tuesday
31,30308066.821261549
831,30308066.821261549
1043,0.0
2,10, 1,10, 0,12, 0.00,60.00,Tuesday
31,32079919.502461427
831,32079919.50246142
1043,0.0
2,10, 1,10, 0,13, 0.00,60.00,Tuesday
31,30871447.297329025
831,30871447.297329025
1043,0.0
2,10, 1,10, 0,14, 0.00,60.00,Tuesday
31,35132121.588701609
831,35132121.5887016
1043,0.0
2,10, 1,10, 0,15, 0.00,60.00,Tuesday
31,35445316.346902187
831,35445316.346902187
1043,0.0
2,10, 1,10, 0,16, 0.00,60.00,Tuesday
31,36246099.31137171
831,36246099.311371717
1043,0.0
2,10, 1,10, 0,17, 0.00,60.00,Tuesday
31,35726243.04580194
831,35726243.04580194
1043,0.0
2,10, 1,10, 0,18, 0.00,60.00,Tuesday
31,23328946.035601148
831,23328946.035601148
1043,0.0
2,10, 1,10, 0,19, 0.00,60.00,Tuesday
31,17630523.28614177
831,17630523.286141777
1043,0.0
2,10, 1,10, 0,20, 0.00,60.00,Tuesday
31,10953154.258345897
831,10953154.258345895
1043,0.0
2,10, 1,10, 0,21, 0.00,60.00,Tuesday
31,9737784.395628443
831,9737784.395628443
1043,0.0
2,10, 1,10, 0,22, 0.00,60.00,Tuesday
31,9737784.395628443
831,9737784.395628443
1043,0.0
2,10, 1,10, 0,23, 0.00,60.00,Tuesday
31,8643951.519120457
831,8643951.519120455
1043,0.0
2,10, 1,10, 0,24, 0.00,60.00,Tuesday
31,6297449.08321209
831,6297449.08321209
1043,0.0
2,11, 1,11, 0, 1, 0.00,60.00,Wednesday
31,8569604.825749658
831,8569604.825749658
1043,0.0
2,11, 1,11, 0, 2, 0.00,60.00,Wednesday
31,8569604.825749658
831,8569604.825749658
1043,0.0
2,11, 1,11, 0, 3, 0.00,60.00,Wednesday
31,8569604.825749658
831,8569604.825749658
1043,0.0
2,11, 1,11, 0, 4, 0.00,60.00,Wednesday
31,8569604.825749658
831,8569604.825749658
1043,0.0
2,11, 1,11, 0, 5, 0.00,60.00,Wednesday
31,8569604.825749658
831,8569604.825749658
1043,0.0
2,11, 1,11, 0, 6, 0.00,60.00,Wednesday
31,8569604.825749658
831,8569604.825749658
1043,0.0
2,11, 1,11, 0, 7, 0.00,60.00,Wednesday
31,18512784.648062704
831,18512784.648062704
1043,0.0
2,11, 1,11, 0, 8, 0.00,60.00,Wednesday
31,21066919.671748137
831,21066919.67174814
1043,0.0
2,11, 1,11, 0, 9, 0.00,60.00,Wednesday
31,29895242.751454474
831,29895242.75145447
1043,0.0
2,11, 1,11, 0,10, 0.00,60.00,Wednesday
31,30744784.88451291
831,30744784.884512906
1043,0.0
2,11, 1,11, 0,11, 0.00,60.00,Wednesday
31,32307949.987560288
831,32307949.987560288
1043,0.0
2,11, 1,11, 0,12, 0.00,60.00,Wednesday
31,33965608.2394161
831,33965608.2394161
1043,0.0
2,11, 1,11, 0,13, 0.00,60.00,Wednesday
31,32369347.738906344
831,32369347.73890634
1043,0.0
2,11, 1,11, 0,14, 0.00,60.00,Wednesday
31,35982631.18685288
831,35982631.18685288
1043,0.0
2,11, 1,11, 0,15, 0.00,60.00,Wednesday
31,36512723.251076299
831,36512723.25107629
1043,0.0
2,11, 1,11, 0,16, 0.00,60.00,Wednesday
31,37090664.61600301
831,37090664.61600301
1043,0.0
2,11, 1,11, 0,17, 0.00,60.00,Wednesday
31,37183882.37750839
831,37183882.37750838
1043,0.0
2,11, 1,11, 0,18, 0.00,60.00,Wednesday
31,26026390.9782195
831,26026390.9782195
1043,0.0
2,11, 1,11, 0,19, 0.00,60.00,Wednesday
31,17630523.28614177
831,17630523.286141777
1043,0.0
2,11, 1,11, 0,20, 0.00,60.00,Wednesday
31,10953154.258345897
831,10953154.258345895
1043,0.0
2,11, 1,11, 0,21, 0.00,60.00,Wednesday
31,9737784.395628443
831,9737784.395628443
1043,0.0
2,11, 1,11, 0,22, 0.00,60.00,Wednesday
31,9737784.395628443
831,9737784.395628443
1043,0.0
2,11, 1,11, 0,23, 0.00,60.00,Wednesday
31,8643951.519120457
831,8643951.519120455
1043,0.0
2,11, 1,11, 0,24, 0.00,60.00,Wednesday
31,6297449.08321209
831,6297449.08321209
1043,0.0
2,12, 1,12, 0, 1, 0.00,60.00,Thursday
31,8569604.825749658
831,8569604.825749658
1043,0.0
2,12, 1,12, 0, 2, 0.00,60.00,Thursday
31,8569604.825749658
831,8569604.825749658
1043,0.0
2,12, 1,12, 0, 3, 0.00,60.00,Thursday
31,8569604.825749658
831,8569604.825749658
1043,0.0
2,12, 1,12, 0, 4, 0.00,60.00,Thursday
31,8569604.825749658
831,8569604.825749658
1043,0.0
2,12, 1,12, 0, 5, 0.00,60.00,Thursday
31,8569604.825749658
831,8569604.825749658
1043,0.0
2,12, 1,12, 0, 6, 0.00,60.00,Thursday
31,8569604.825749658
831,8569604.825749658
1043,0.0
2,12, 1,12, 0, 7, 0.00,60.00,Thursday
31,18652882.244668455
831,18652882.244668459
1043,0.0