Program Version,EnergyPlus, Version 8.6.0-198c6a3cff, YMD=2019.03.03 18:57
1,5,Environment Title[],Latitude[deg],Longitude[deg],Time Zone[],Elevation[m]
2,6,Day of Simulation[],Month[],Day of Month[],DST Indicator[1=yes 0=no],Hour[],StartMinute[],EndMinute[],DayType
3,3,Cumulative Day of Simulation[],Month[],Day of Month[],DST Indicator[1=yes 0=no],DayType  ! When Daily Meters Requested
4,2,Cumulative Days of Simulation[],Month[]  ! When Monthly Meters Requested
5,1,Cumulative Days of Simulation[] ! When Run Period Meters Requested
31,1,Electricity:Facility [J] !Hourly
831,1,ElectricityNet:Facility [J] !Hourly
1043,1,Gas:Facility [J] !Hourly
End of Data Dictionary
1,BUFFALO.NIAGARA.INTL.AP_NY_USA ANN HTG 99.6% CONDNS DB,  41.98, -87.92,  -6.00, 201.00
2,1, 1,21, 0, 1, 0.00,60.00,WinterDesignDay
31,7933366.141521372
831,7933366.141521372
1043,31822253.12989278
2,1, 1,21, 0, 2, 0.00,60.00,WinterDesignDay
31,7232719.062299251
831,7232719.062299251
1043,26836959.567589016
2,1, 1,21, 0, 3, 0.00,60.00,WinterDesignDay
31,8017993.549777875
831,8017993.549777875
1043,31257169.702274316
2,1, 1,21, 0, 4, 0.00,60.00,WinterDesignDay
31,7232719.062299251
831,7232719.062299251
1043,26877372.660034278
2,1, 1,21, 0, 5, 0.00,60.00,WinterDesignDay
31,8017993.549777875
831,8017993.549777875
1043,31280159.23888348
2,1, 1,21, 0, 6, 0.00,60.00,WinterDesignDay
31,7232719.062299251
831,7232719.062299251
1043,26887541.67772495
2,1, 1,21, 0, 7, 0.00,60.00,WinterDesignDay
31,9209593.549777875
831,9209593.549777873
1043,31286452.86118541
2,1, 1,21, 0, 8, 0.00,60.00,WinterDesignDay
31,6437384.164819618
831,6437384.164819617
1043,21349852.852308215
2,1, 1,21, 0, 9, 0.00,60.00,WinterDesignDay
31,6697290.874219335
831,6697290.874219335
1043,23759015.348907934
2,1, 1,21, 0,10, 0.00,60.00,WinterDesignDay
31,6067572.999529926
831,6067572.999529926
1043,21323220.27932103
2,1, 1,21, 0,11, 0.00,60.00,WinterDesignDay
31,6698231.99590297
831,6698231.9959029699
1043,23692043.387385094
2,1, 1,21, 0,12, 0.00,60.00,WinterDesignDay
31,6069142.905965387
831,6069142.905965386
1043,21311493.492155706
2,1, 1,21, 0,13, 0.00,60.00,WinterDesignDay
31,6701482.3294500219
831,6701482.3294500219
1043,23732821.452225765
2,1, 1,21, 0,14, 0.00,60.00,WinterDesignDay
31,6070612.500660599
831,6070612.500660598
1043,21337147.24814353
2,1, 1,21, 0,15, 0.00,60.00,WinterDesignDay
31,6704017.981574588
831,6704017.981574588
1043,23686294.401296613
2,1, 1,21, 0,16, 0.00,60.00,WinterDesignDay
31,6071695.879300591
831,6071695.879300591
1043,21282355.414404084
2,1, 1,21, 0,17, 0.00,60.00,WinterDesignDay
31,7439434.621616084
831,7439434.621616084
1043,23695653.036845939
2,1, 1,21, 0,18, 0.00,60.00,WinterDesignDay
31,8273162.761908751
831,8273162.76190875
1043,21268716.629414187
2,1, 1,21, 0,19, 0.00,60.00,WinterDesignDay
31,9195488.9817974
831,9195488.9817974
1043,30346507.54654266
2,1, 1,21, 0,20, 0.00,60.00,WinterDesignDay
31,7622419.062361528
831,7622419.062361528
1043,26772335.10682632
2,1, 1,21, 0,21, 0.00,60.00,WinterDesignDay
31,8407693.549840153
831,8407693.549840153
1043,31241622.858378933
2,1, 1,21, 0,22, 0.00,60.00,WinterDesignDay
31,7622419.062361528
831,7622419.062361528
1043,26882536.995981628
2,1, 1,21, 0,23, 0.00,60.00,WinterDesignDay
31,8407693.549777875
831,8407693.549777875
1043,31275548.106447214
2,1, 1,21, 0,24, 0.00,60.00,WinterDesignDay
31,7622419.062299251
831,7622419.062299251
1043,26888524.62419321
1,BUFFALO.NIAGARA.INTL.AP_NY_USA ANN CLG .4% CONDNS DB=>MWB,  41.98, -87.92,  -6.00, 201.00
2,1, 7,21, 0, 1, 0.00,60.00,SummerDesignDay
31,39936281.61292556
831,39936281.61292555
1043,0.0
2,1, 7,21, 0, 2, 0.00,60.00,SummerDesignDay
31,38617916.49863628
831,38617916.49863628
1043,0.0
2,1, 7,21, 0, 3, 0.00,60.00,SummerDesignDay
31,39897213.77359854
831,39897213.77359854
1043,0.0
2,1, 7,21, 0, 4, 0.00,60.00,SummerDesignDay
31,38385188.08924716
831,38385188.08924716
1043,0.0
2,1, 7,21, 0, 5, 0.00,60.00,SummerDesignDay
31,39214377.538283
831,39214377.53828299
1043,0.0
2,1, 7,21, 0, 6, 0.00,60.00,SummerDesignDay
31,36857980.2448371
831,36857980.2448371
1043,0.0
2,1, 7,21, 0, 7, 0.00,60.00,SummerDesignDay
31,43278227.7760455
831,43278227.7760455
1043,0.0
2,1, 7,21, 0, 8, 0.00,60.00,SummerDesignDay
31,43683291.562272768
831,43683291.56227276
1043,0.0
2,1, 7,21, 0, 9, 0.00,60.00,SummerDesignDay
31,44948061.64294148
831,44948061.64294148
1043,0.0
2,1, 7,21, 0,10, 0.00,60.00,SummerDesignDay
31,45769309.30566486
831,45769309.30566486
1043,0.0
2,1, 7,21, 0,11, 0.00,60.00,SummerDesignDay
31,46447482.449280429
831,46447482.449280429
1043,0.0
2,1, 7,21, 0,12, 0.00,60.00,SummerDesignDay
31,47117289.26973176
831,47117289.26973175
1043,0.0
2,1, 7,21, 0,13, 0.00,60.00,SummerDesignDay
31,47726415.73696931
831,47726415.7369693
1043,0.0
2,1, 7,21, 0,14, 0.00,60.00,SummerDesignDay
31,48218046.74671599
831,48218046.746715988
1043,0.0
2,1, 7,21, 0,15, 0.00,60.00,SummerDesignDay
31,48721604.24560582
831,48721604.245605807
1043,0.0
2,1, 7,21, 0,16, 0.00,60.00,SummerDesignDay
31,48628606.217012617
831,48628606.217012617
1043,0.0
2,1, 7,21, 0,17, 0.00,60.00,SummerDesignDay
31,48453603.48583348
831,48453603.48583347
1043,0.0
2,1, 7,21, 0,18, 0.00,60.00,SummerDesignDay
31,48117563.48637747
831,48117563.48637747
1043,0.0
2,1, 7,21, 0,19, 0.00,60.00,SummerDesignDay
31,48249493.254912968
831,48249493.25491296
1043,0.0
2,1, 7,21, 0,20, 0.00,60.00,SummerDesignDay
31,43631452.65532125
831,43631452.65532124
1043,0.0
2,1, 7,21, 0,21, 0.00,60.00,SummerDesignDay
31,41188098.59605624
831,41188098.59605624
1043,0.0
2,1, 7,21, 0,22, 0.00,60.00,SummerDesignDay
31,42398255.13716769
831,42398255.13716769
1043,0.0
2,1, 7,21, 0,23, 0.00,60.00,SummerDesignDay
31,39720148.88121503
831,39720148.88121503
1043,0.0
2,1, 7,21, 0,24, 0.00,60.00,SummerDesignDay
31,40961490.80609976
831,40961490.80609976
1043,0.0
1,Chicago Ohare Intl Ap IL USA TMY3 WMO#=725300,  41.98, -87.92,  -6.00, 201.00
2,1, 1, 1, 0, 1, 0.00,60.00,Holiday
31,6404338.596677196
831,6404338.596677196
1043,0.0
2,1, 1, 1, 0, 2, 0.00,60.00,Holiday
31,6404338.596677196
831,6404338.596677196
1043,0.0
2,1, 1, 1, 0, 3, 0.00,60.00,Holiday
31,6404338.596677196
831,6404338.596677196
1043,0.0
2,1, 1, 1, 0, 4, 0.00,60.00,Holiday
31,6404338.596677196
831,6404338.596677196
1043,0.0
2,1, 1, 1, 0, 5, 0.00,60.00,Holiday
31,6404338.596677196
831,6404338.596677196
1043,0.0
2,1, 1, 1, 0, 6, 0.00,60.00,Holiday
31,6404338.596677196
831,6404338.596677196
1043,0.0
2,1, 1, 1, 0, 7, 0.00,60.00,Holiday
31,7595938.596677196
831,7595938.596677195
1043,0.0
2,1, 1, 1, 0, 8, 0.00,60.00,Holiday
31,6128818.596677196
831,6128818.596677195
1043,0.0
2,1, 1, 1, 0, 9, 0.00,60.00,Holiday
31,5395258.596677196
831,5395258.596677196
1043,0.0
2,1, 1, 1, 0,10, 0.00,60.00,Holiday
31,5395258.596677196
831,5395258.596677196
1043,0.0
2,1, 1, 1, 0,11, 0.00,60.00,Holiday
31,5395258.596677196
831,5395258.596677196
1043,0.0
2,1, 1, 1, 0,12, 0.00,60.00,Holiday
31,5395258.596677196
831,5395258.596677196
1043,0.0
2,1, 1, 1, 0,13, 0.00,60.00,Holiday
31,5395258.596677196
831,5395258.596677196
1043,0.0
2,1, 1, 1, 0,14, 0.00,60.00,Holiday
31,5395258.596677196
831,5395258.596677196
1043,0.0
2,1, 1, 1, 0,15, 0.00,60.00,Holiday
31,5395258.596677196
831,5395258.596677196
1043,0.0
2,1, 1, 1, 0,16, 0.00,60.00,Holiday
31,5395258.596677196
831,5395258.596677196
1043,0.0
2,1, 1, 1, 0,17, 0.00,60.00,Holiday
31,6862378.596677196
831,6862378.596677195
1043,0.0
2,1, 1, 1, 0,18, 0.00,60.00,Holiday
31,7595938.596677196
831,7595938.596677195
1043,0.0
2,1, 1, 1, 0,19, 0.00,60.00,Holiday
31,7595938.596677196
831,7595938.596677195
1043,0.0
2,1, 1, 1, 0,20, 0.00,60.00,Holiday
31,6794038.596677196
831,6794038.596677196
1043,0.0
2,1, 1, 1, 0,21, 0.00,60.00,Holiday
31,6794038.596677196
831,6794038.596677196
1043,0.0
2,1, 1, 1, 0,22, 0.00,60.00,Holiday
31,6794038.596677196
831,6794038.596677196
1043,0.0
2,1, 1, 1, 0,23, 0.00,60.00,Holiday
31,6794038.596677196
831,6794038.596677196
1043,0.0
2,1, 1, 1, 0,24, 0.00,60.00,Holiday
31,6794038.596677196
831,6794038.596677196
1043,0.0
2,2, 1, 2, 0, 1, 0.00,60.00,Monday
31,9469604.825749658
831,9469604.825749658
1043,0.0
2,2, 1, 2, 0, 2, 0.00,60.00,Monday
31,9469604.825749658
831,9469604.825749658
1043,0.0
2,2, 1, 2, 0, 3, 0.00,60.00,Monday
31,9469604.825749658
831,9469604.825749658
1043,0.0
2,2, 1, 2, 0, 4, 0.00,60.00,Monday
31,9469604.825749658
831,9469604.825749658
1043,0.0
2,2, 1, 2, 0, 5, 0.00,60.00,Monday
31,9469604.825749658
831,9469604.825749658
1043,0.0
2,2, 1, 2, 0, 6, 0.00,60.00,Monday
31,9469604.825749658
831,9469604.825749658
1043,0.0
2,2, 1, 2, 0, 7, 0.00,60.00,Monday
31,34242684.04575102
831,34242684.04575101
1043,12629746.093676199
2,2, 1, 2, 0, 8, 0.00,60.00,Monday
31,38145400.09435431
831,38145400.09435431
1043,10761121.115033811
2,2, 1, 2, 0, 9, 0.00,60.00,Monday
31,41175502.006054747
831,41175502.006054747
1043,0.0
2,2, 1, 2, 0,10, 0.00,60.00,Monday
31,37496999.61050887
831,37496999.61050886
1043,0.0
2,2, 1, 2, 0,11, 0.00,60.00,Monday
31,34881595.03231343
831,34881595.03231342
1043,0.0
2,2, 1, 2, 0,12, 0.00,60.00,Monday
31,32312659.167905086
831,32312659.16790508
1043,0.0
2,2, 1, 2, 0,13, 0.00,60.00,Monday
31,33009960.037556944
831,33009960.03755694
1043,0.0
2,2, 1, 2, 0,14, 0.00,60.00,Monday
31,32223844.01345348
831,32223844.013453477
1043,0.0
2,2, 1, 2, 0,15, 0.00,60.00,Monday
31,33117240.826507465
831,33117240.826507458
1043,0.0
2,2, 1, 2, 0,16, 0.00,60.00,Monday
31,33621841.85235779
831,33621841.85235778
1043,0.0
2,2, 1, 2, 0,17, 0.00,60.00,Monday
31,35450622.33042656
831,35450622.33042655
1043,0.0
2,2, 1, 2, 0,18, 0.00,60.00,Monday
31,35989741.561403799
831,35989741.561403799
1043,1842485.8096992649
2,2, 1, 2, 0,19, 0.00,60.00,Monday
31,30922902.23551193
831,30922902.235511926
1043,0.0
2,2, 1, 2, 0,20, 0.00,60.00,Monday
31,11853154.258345897
831,11853154.258345895
1043,0.0
2,2, 1, 2, 0,21, 0.00,60.00,Monday
31,10637784.395628443
831,10637784.395628443
1043,0.0
2,2, 1, 2, 0,22, 0.00,60.00,Monday
31,10637784.395628443
831,10637784.395628443
1043,0.0
2,2, 1, 2, 0,23, 0.00,60.00,Monday
31,9543951.519120457
831,9543951.519120455
1043,0.0
2,2, 1, 2, 0,24, 0.00,60.00,Monday
31,7197449.08321209
831,7197449.08321209
1043,0.0
2,3, 1, 3, 0, 1, 0.00,60.00,Tuesday
31,9469604.825749658
831,9469604.825749658
1043,0.0
2,3, 1, 3, 0, 2, 0.00,60.00,Tuesday
31,9469604.825749658
831,9469604.825749658
1043,0.0
2,3, 1, 3, 0, 3, 0.00,60.00,Tuesday
31,9469604.825749658
831,9469604.825749658
1043,0.0
2,3, 1, 3, 0, 4, 0.00,60.00,Tuesday
31,9469604.825749658
831,9469604.825749658
1043,0.0
2,3, 1, 3, 0, 5, 0.00,60.00,Tuesday
31,9469604.825749658
831,9469604.825749658
1043,0.0
2,3, 1, 3, 0, 6, 0.00,60.00,Tuesday
31,9469604.825749658
831,9469604.825749658
1043,0.0
2,3, 1, 3, 0, 7, 0.00,60.00,Tuesday
31,30808957.97529437
831,30808957.975294375
1043,6200909.363352631
2,3, 1, 3, 0, 8, 0.00,60.00,Tuesday
31,37240634.63277353
831,37240634.63277353
1043,10289260.059696025
2,3, 1, 3, 0, 9, 0.00,60.00,Tuesday
31,40288180.10691506
831,40288180.10691505
1043,0.0
2,3, 1, 3, 0,10, 0.00,60.00,Tuesday
31,37842866.851587269
831,37842866.85158725
1043,17891.254694774205
2,3, 1, 3, 0,11, 0.00,60.00,Tuesday
31,35963132.786566447
831,35963132.78656643
1043,0.0
2,3, 1, 3, 0,12, 0.00,60.00,Tuesday
31,34499253.41312119
831,34499253.413121189
1043,0.0
2,3, 1, 3, 0,13, 0.00,60.00,Tuesday
31,36736322.77664353
831,36736322.77664352
1043,1689152.1920690395
2,3, 1, 3, 0,14, 0.00,60.00,Tuesday
31,32954120.514568386
831,32954120.514568379
1043,0.0
2,3, 1, 3, 0,15, 0.00,60.00,Tuesday
31,32775968.41093036
831,32775968.41093035
1043,0.0
2,3, 1, 3, 0,16, 0.00,60.00,Tuesday
31,33392073.14481473
831,33392073.144814727
1043,0.0
2,3, 1, 3, 0,17, 0.00,60.00,Tuesday
31,35764844.61842958
831,35764844.61842957
1043,0.0
2,3, 1, 3, 0,18, 0.00,60.00,Tuesday
31,35383951.592922929
831,35383951.59292291
1043,4013952.956693577
2,3, 1, 3, 0,19, 0.00,60.00,Tuesday
31,30961212.315698789
831,30961212.31569878
1043,0.0
2,3, 1, 3, 0,20, 0.00,60.00,Tuesday
31,11853154.258345897
831,11853154.258345895
1043,0.0
2,3, 1, 3, 0,21, 0.00,60.00,Tuesday
31,10637784.395628443
831,10637784.395628443
1043,0.0
2,3, 1, 3, 0,22, 0.00,60.00,Tuesday
31,10637784.395628443
831,10637784.395628443
1043,0.0
2,3, 1, 3, 0,23, 0.00,60.00,Tuesday
31,9543951.519120457
831,9543951.519120455
1043,0.0
2,3, 1, 3, 0,24, 0.00,60.00,Tuesday
31,7197449.08321209
831,7197449.08321209
1043,0.0
2,4, 1, 4, 0, 1, 0.00,60.00,Wednesday
31,9469604.825749658
831,9469604.825749658
1043,0.0
2,4, 1, 4, 0, 2, 0.00,60.00,Wednesday
31,9469604.825749658
831,9469604.825749658
1043,0.0
2,4, 1, 4, 0, 3, 0.00,60.00,Wednesday
31,9469604.825749658
831,9469604.825749658
1043,0.0
2,4, 1, 4, 0, 4, 0.00,60.00,Wednesday
31,9469604.825749658
831,9469604.825749658
1043,0.0
2,4, 1, 4, 0, 5, 0.00,60.00,Wednesday
31,9469604.825749658
831,9469604.825749658
1043,0.0
2,4, 1, 4, 0, 6, 0.00,60.00,Wednesday
31,9469604.825749658
831,9469604.825749658
1043,0.0
2,4, 1, 4, 0, 7, 0.00,60.00,Wednesday
31,31487543.36458831
831,31487543.36458831
1043,7052175.204037909
2,4, 1, 4, 0, 8, 0.00,60.00,Wednesday
31,38188270.41252866
831,38188270.41252866
1043,10653544.580865415
2,4, 1, 4, 0, 9, 0.00,60.00,Wednesday
31,40193374.27231227
831,40193374.27231226
1043,0.0
2,4, 1, 4, 0,10, 0.00,60.00,Wednesday
31,36982109.16502768
831,36982109.16502768
1043,0.0
2,4, 1, 4, 0,11, 0.00,60.00,Wednesday
31,34900655.75235793
831,34900655.75235792
1043,0.0
2,4, 1, 4, 0,12, 0.00,60.00,Wednesday
31,33587841.08390916
831,33587841.08390916
1043,0.0
2,4, 1, 4, 0,13, 0.00,60.00,Wednesday
31,36065817.66425218
831,36065817.66425218
1043,0.0
2,4, 1, 4, 0,14, 0.00,60.00,Wednesday
31,32083502.146920258
831,32083502.146920247
1043,0.0
2,4, 1, 4, 0,15, 0.00,60.00,Wednesday
31,32379861.047038385
831,32379861.047038378
1043,0.0
2,4, 1, 4, 0,16, 0.00,60.00,Wednesday
31,33416563.360504189
831,33416563.360504185
1043,0.0
2,4, 1, 4, 0,17, 0.00,60.00,Wednesday
31,36100102.24750069
831,36100102.24750069
1043,0.0
2,4, 1, 4, 0,18, 0.00,60.00,Wednesday
31,36220813.66184378
831,36220813.66184377
1043,5354289.94779749
2,4, 1, 4, 0,19, 0.00,60.00,Wednesday
31,33204858.677989074
831,33204858.677989074
1043,0.0
2,4, 1, 4, 0,20, 0.00,60.00,Wednesday
31,11853154.258345897
831,11853154.258345895
1043,0.0
2,4, 1, 4, 0,21, 0.00,60.00,Wednesday
31,10637784.395628443
831,10637784.395628443
1043,0.0
2,4, 1, 4, 0,22, 0.00,60.00,Wednesday
31,10637784.395628443
831,10637784.395628443
1043,0.0
2,4, 1, 4, 0,23, 0.00,60.00,Wednesday
31,9543951.519120457
831,9543951.519120455
1043,0.0
2,4, 1, 4, 0,24, 0.00,60.00,Wednesday
31,7197449.08321209
831,7197449.08321209
1043,0.0
2,5, 1, 5, 0, 1, 0.00,60.00,Thursday
31,9469604.825749658
831,9469604.825749658
1043,0.0
2,5, 1, 5, 0, 2, 0.00,60.00,Thursday
31,9469604.825749658
831,9469604.825749658
1043,0.0
2,5, 1, 5, 0, 3, 0.00,60.00,Thursday
31,9469604.825749658
831,9469604.825749658
1043,0.0
2,5, 1, 5, 0, 4, 0.00,60.00,Thursday
31,9469604.825749658
831,9469604.825749658
1043,0.0
2,5, 1, 5, 0, 5, 0.00,60.00,Thursday
31,9469604.825749658
831,9469604.825749658
1043,0.0
2,5, 1, 5, 0, 6, 0.00,60.00,Thursday
31,9469604.825749658
831,9469604.825749658
1043,0.0
2,5, 1, 5, 0, 7, 0.00,60.00,Thursday
31,18502844.76990808
831,18502844.769908076
1043,59886889.84974331
2,5, 1, 5, 0, 8, 0.00,60.00,Thursday
31,19627282.761506604
831,19627282.7615066
1043,75761401.57914306
2,5, 1, 5, 0, 9, 0.00,60.00,Thursday
31,29766649.6084981
831,29766649.608498094
1043,44886049.08464596
2,5, 1, 5, 0,10, 0.00,60.00,Thursday
31,33381637.470415016
831,33381637.47041501
1043,22305383.29260764
2,5, 1, 5, 0,11, 0.00,60.00,Thursday
31,38537259.34912218
831,38537259.349122177
1043,343663.9219495377
2,5, 1, 5, 0,12, 0.00,60.00,Thursday
31,36391759.72353418
831,36391759.72353417
1043,0.0
2,5, 1, 5, 0,13, 0.00,60.00,Thursday
31,37125333.15611554
831,37125333.15611554
1043,0.0
2,5, 1, 5, 0,14, 0.00,60.00,Thursday
31,33475994.93308162
831,33475994.933081613
1043,0.0
2,5, 1, 5, 0,15, 0.00,60.00,Thursday
31,31911017.238537548
831,31911017.238537544
1043,0.0
2,5, 1, 5, 0,16, 0.00,60.00,Thursday
31,31930143.50091099
831,31930143.50091098
1043,0.0
2,5, 1, 5, 0,17, 0.00,60.00,Thursday
31,35102491.19753505
831,35102491.19753505
1043,0.0
2,5, 1, 5, 0,18, 0.00,60.00,Thursday
31,35730814.265602927
831,35730814.265602927
1043,3990354.8928969099
2,5, 1, 5, 0,19, 0.00,60.00,Thursday
31,31784960.932800179
831,31784960.932800175
1043,0.0
2,5, 1, 5, 0,20, 0.00,60.00,Thursday
31,11853154.258345897
831,11853154.258345895
1043,0.0
2,5, 1, 5, 0,21, 0.00,60.00,Thursday
31,10637784.395628443
831,10637784.395628443
1043,0.0
2,5, 1, 5, 0,22, 0.00,60.00,Thursday
31,10637784.395628443
831,10637784.395628443
1043,0.0
2,5, 1, 5, 0,23, 0.00,60.00,Thursday
31,9543951.519120457
831,9543951.519120455
1043,0.0
2,5, 1, 5, 0,24, 0.00,60.00,Thursday
31,7197449.08321209
831,7197449.08321209
1043,0.0
2,6, 1, 6, 0, 1, 0.00,60.00,Friday
31,9469604.825749658
831,9469604.825749658
1043,0.0
2,6, 1, 6, 0, 2, 0.00,60.00,Friday
31,9469604.825749658
831,9469604.825749658
1043,0.0
2,6, 1, 6, 0, 3, 0.00,60.00,Friday
31,9469604.825749658
831,9469604.825749658
1043,0.0
2,6, 1, 6, 0, 4, 0.00,60.00,Friday
31,9469604.825749658
831,9469604.825749658
1043,0.0
2,6, 1, 6, 0, 5, 0.00,60.00,Friday
31,9469604.825749658
831,9469604.825749658
1043,0.0
2,6, 1, 6, 0, 6, 0.00,60.00,Friday
31,9469604.825749658
831,9469604.825749658
1043,0.0
2,6, 1, 6, 0, 7, 0.00,60.00,Friday
31,18502844.76990808
831,18502844.769908076
1043,61029863.46523076
2,6, 1, 6, 0, 8, 0.00,60.00,Friday
31,19611055.57133158
831,19611055.571331577
1043,77460892.97575176
2,6, 1, 6, 0, 9, 0.00,60.00,Friday
31,29734293.3301277
831,29734293.330127695
1043,45809538.1187342
2,6, 1, 6, 0,10, 0.00,60.00,Friday
31,29454656.46004949
831,29454656.46004949
1043,32905703.0549385
2,6, 1, 6, 0,11, 0.00,60.00,Friday
31,29365660.230567568
831,29365660.230567557
1043,26258400.742036538
2,6, 1, 6, 0,12, 0.00,60.00,Friday
31,40225331.70235102
831,40225331.70235101
1043,319853.4833260925
2,6, 1, 6, 0,13, 0.00,60.00,Friday
31,40837469.72749819
831,40837469.72749817
1043,11420385.239103154
2,6, 1, 6, 0,14, 0.00,60.00,Friday
31,40171279.69021283
831,40171279.69021283
1043,463815.4096235186
2,6, 1, 6, 0,15, 0.00,60.00,Friday
31,39838016.10906988
831,39838016.10906987
1043,0.0
2,6, 1, 6, 0,16, 0.00,60.00,Friday
31,38698493.75336156
831,38698493.75336156
1043,3982619.7978724425
2,6, 1, 6, 0,17, 0.00,60.00,Friday
31,32262909.53813713
831,32262909.53813713
1043,27361962.22143409
2,6, 1, 6, 0,18, 0.00,60.00,Friday
31,23521117.399455783
831,23521117.39945578
1043,57494282.25149944
2,6, 1, 6, 0,19, 0.00,60.00,Friday
31,17620583.40798715
831,17620583.407987145
1043,59678242.562524568
2,6, 1, 6, 0,20, 0.00,60.00,Friday
31,11853154.258345897
831,11853154.258345895
1043,0.0
2,6, 1, 6, 0,21, 0.00,60.00,Friday
31,10637784.395628443
831,10637784.395628443
1043,0.0
2,6, 1, 6, 0,22, 0.00,60.00,Friday
31,10637784.395628443
831,10637784.395628443
1043,0.0
2,6, 1, 6, 0,23, 0.00,60.00,Friday
31,9543951.519120457
831,9543951.519120455
1043,0.0
2,6, 1, 6, 0,24, 0.00,60.00,Friday
31,7197449.08321209
831,7197449.08321209
1043,0.0
2,7, 1, 7, 0, 1, 0.00,60.00,Saturday
31,6404338.596677196
831,6404338.596677196
1043,0.0
2,7, 1, 7, 0, 2, 0.00,60.00,Saturday
31,6404338.596677196
831,6404338.596677196
1043,0.0
2,7, 1, 7, 0, 3, 0.00,60.00,Saturday
31,6404338.596677196
831,6404338.596677196
1043,0.0
2,7, 1, 7, 0, 4, 0.00,60.00,Saturday
31,6404338.596677196
831,6404338.596677196
1043,0.0
2,7, 1, 7, 0, 5, 0.00,60.00,Saturday
31,6404338.596677196
831,6404338.596677196
1043,0.0
2,7, 1, 7, 0, 6, 0.00,60.00,Saturday
31,6404338.596677196
831,6404338.596677196
1043,0.0
2,7, 1, 7, 0, 7, 0.00,60.00,Saturday
31,7595938.596677196
831,7595938.596677195
1043,0.0
2,7, 1, 7, 0, 8, 0.00,60.00,Saturday
31,6128818.596677196
831,6128818.596677195
1043,0.0
2,7, 1, 7, 0, 9, 0.00,60.00,Saturday
31,5395258.596677196
831,5395258.596677196
1043,0.0
2,7, 1, 7, 0,10, 0.00,60.00,Saturday
31,5395258.596677196
831,5395258.596677196
1043,0.0
2,7, 1, 7, 0,11, 0.00,60.00,Saturday
31,5395258.596677196
831,5395258.596677196
1043,0.0
2,7, 1, 7, 0,12, 0.00,60.00,Saturday
31,5395258.596677196
831,5395258.596677196
1043,0.0
2,7, 1, 7, 0,13, 0.00,60.00,Saturday
31,5395258.596677196
831,5395258.596677196
1043,0.0
2,7, 1, 7, 0,14, 0.00,60.00,Saturday
31,5395258.596677196
831,5395258.596677196
1043,0.0
2,7, 1, 7, 0,15, 0.00,60.00,Saturday
31,5395258.596677196
831,5395258.596677196
1043,0.0
2,7, 1, 7, 0,16, 0.00,60.00,Saturday
31,5395258.596677196
831,5395258.596677196
1043,0.0
2,7, 1, 7, 0,17, 0.00,60.00,Saturday
31,6495598.596677196
831,6495598.596677196
1043,0.0
2,7, 1, 7, 0,18, 0.00,60.00,Saturday
31,7595938.596677196
831,7595938.596677195
1043,0.0
2,7, 1, 7, 0,19, 0.00,60.00,Saturday
31,7595938.596677196
831,7595938.596677195
1043,0.0
2,7, 1, 7, 0,20, 0.00,60.00,Saturday
31,6794038.596677196
831,6794038.596677196
1043,0.0
2,7, 1, 7, 0,21, 0.00,60.00,Saturday
31,6794038.596677196
831,6794038.596677196
1043,0.0
2,7, 1, 7, 0,22, 0.00,60.00,Saturday
31,6794038.596677196
831,6794038.596677196
1043,0.0
2,7, 1, 7, 0,23, 0.00,60.00,Saturday
31,6794038.596677196
831,6794038.596677196
1043,0.0
2,7, 1, 7, 0,24, 0.00,60.00,Saturday
31,7052264.122529548
831,7052264.122529548
1043,818670.0354004572
2,8, 1, 8, 0, 1, 0.00,60.00,Sunday
31,6652770.849631601
831,6652770.8496316
1043,879621.6957013016
2,8, 1, 8, 0, 2, 0.00,60.00,Sunday
31,6655038.306359046
831,6655038.306359045
1043,984522.0829062456
2,8, 1, 8, 0, 3, 0.00,60.00,Sunday
31,7383177.08952948
831,7383177.08952948
1043,1862996.715824308
2,8, 1, 8, 0, 4, 0.00,60.00,Sunday
31,7569184.125883256
831,7569184.125883256
1043,2422865.7884795137
2,8, 1, 8, 0, 5, 0.00,60.00,Sunday
31,7819739.620383935
831,7819739.620383935
1043,3467726.315244183
2,8, 1, 8, 0, 6, 0.00,60.00,Sunday
31,8138497.154418127
831,8138497.154418127
1043,2697117.618131068
2,8, 1, 8, 0, 7, 0.00,60.00,Sunday
31,8533197.651274017
831,8533197.651274015
1043,1879296.5932248263
2,8, 1, 8, 0, 8, 0.00,60.00,Sunday
31,7207367.356742461
831,7207367.356742461
1043,2915003.353444284
2,8, 1, 8, 0, 9, 0.00,60.00,Sunday
31,6581172.346102925
831,6581172.346102923
1043,2519348.3557319848
2,8, 1, 8, 0,10, 0.00,60.00,Sunday
31,5808770.448596771
831,5808770.44859677
1043,1096930.4776658719
2,8, 1, 8, 0,11, 0.00,60.00,Sunday
31,5540430.792550729
831,5540430.792550729
1043,0.0
2,8, 1, 8, 0,12, 0.00,60.00,Sunday
31,5395258.596677196
831,5395258.596677196
1043,0.0
2,8, 1, 8, 0,13, 0.00,60.00,Sunday
31,5395258.596677196
831,5395258.596677196
1043,0.0
2,8, 1, 8, 0,14, 0.00,60.00,Sunday
31,5395258.596677196
831,5395258.596677196
1043,0.0
2,8, 1, 8, 0,15, 0.00,60.00,Sunday
31,5395258.596677196
831,5395258.596677196
1043,0.0
2,8, 1, 8, 0,16, 0.00,60.00,Sunday
31,5395258.596677196
831,5395258.596677196
1043,0.0
2,8, 1, 8, 0,17, 0.00,60.00,Sunday
31,6495598.596677196
831,6495598.596677196
1043,0.0
2,8, 1, 8, 0,18, 0.00,60.00,Sunday
31,7595938.596677196
831,7595938.596677195
1043,0.0
2,8, 1, 8, 0,19, 0.00,60.00,Sunday
31,7595938.596677196
831,7595938.596677195
1043,0.0
2,8, 1, 8, 0,20, 0.00,60.00,Sunday
31,6794038.596677196
831,6794038.596677196
1043,0.0
2,8, 1, 8, 0,21, 0.00,60.00,Sunday
31,6794038.596677196
831,6794038.596677196
1043,0.0
2,8, 1, 8, 0,22, 0.00,60.00,Sunday
31,6794038.596677196
831,6794038.596677196
1043,0.0
2,8, 1, 8, 0,23, 0.00,60.00,Sunday
31,7353998.545540447
831,7353998.545540447
1043,0.0
2,8, 1, 8, 0,24, 0.00,60.00,Sunday
31,7297154.070510384
831,7297154.070510383
1043,0.0
2,9, 1, 9, 0, 1, 0.00,60.00,Monday
31,9469604.825749658
831,9469604.825749658
1043,0.0
2,9, 1, 9, 0, 2, 0.00,60.00,Monday
31,9469604.825749658
831,9469604.825749658
1043,0.0
2,9, 1, 9, 0, 3, 0.00,60.00,Monday
31,9469604.825749658
831,9469604.825749658
1043,0.0
2,9, 1, 9, 0, 4, 0.00,60.00,Monday
31,9469604.825749658
831,9469604.825749658
1043,0.0
2,9, 1, 9, 0, 5, 0.00,60.00,Monday
31,9469604.825749658
831,9469604.825749658
1043,0.0
2,9, 1, 9, 0, 6, 0.00,60.00,Monday
31,9469604.825749658
831,9469604.825749658
1043,0.0
2,9, 1, 9, 0, 7, 0.00,60.00,Monday
31,35656754.16386534
831,35656754.163865339
1043,46209616.134302418
2,9, 1, 9, 0, 8, 0.00,60.00,Monday
31,38032912.09345585
831,38032912.09345584
1043,43685777.09804396
2,9, 1, 9, 0, 9, 0.00,60.00,Monday
31,45323673.893908809
831,45323673.8939088
1043,4571084.27267295
2,9, 1, 9, 0,10, 0.00,60.00,Monday
31,40905551.85194258
831,40905551.85194257
1043,131899.41643593668
2,9, 1, 9, 0,11, 0.00,60.00,Monday
31,37488451.96574307
831,37488451.96574306
1043,0.0
2,9, 1, 9, 0,12, 0.00,60.00,Monday
31,34298851.92004274
831,34298851.92004274
1043,0.0
2,9, 1, 9, 0,13, 0.00,60.00,Monday
31,34380968.611334759
831,34380968.611334759
1043,0.0
2,9, 1, 9, 0,14, 0.00,60.00,Monday
31,31234733.826550668
831,31234733.82655066
1043,0.0
2,9, 1, 9, 0,15, 0.00,60.00,Monday
31,30525685.936003135
831,30525685.936003135
1043,0.0
2,9, 1, 9, 0,16, 0.00,60.00,Monday
31,30747758.13010922
831,30747758.130109215
1043,0.0
2,9, 1, 9, 0,17, 0.00,60.00,Monday
31,33326225.93406436
831,33326225.934064356
1043,0.0
2,9, 1, 9, 0,18, 0.00,60.00,Monday
31,32775360.706408778
831,32775360.70640877
1043,0.0
2,9, 1, 9, 0,19, 0.00,60.00,Monday
31,27585740.92294893
831,27585740.922948928
1043,0.0
2,9, 1, 9, 0,20, 0.00,60.00,Monday
31,11853154.258345897
831,11853154.258345895
1043,0.0
2,9, 1, 9, 0,21, 0.00,60.00,Monday
31,10637784.395628443
831,10637784.395628443
1043,0.0
2,9, 1, 9, 0,22, 0.00,60.00,Monday
31,10637784.395628443
831,10637784.395628443
1043,0.0
2,9, 1, 9, 0,23, 0.00,60.00,Monday
31,9543951.519120457
831,9543951.519120455
1043,0.0
2,9, 1, 9, 0,24, 0.00,60.00,Monday
31,7197449.08321209
831,7197449.08321209
1043,0.0
2,10, 1,10, 0, 1, 0.00,60.00,Tuesday
31,9469604.825749658
831,9469604.825749658
1043,0.0
2,10, 1,10, 0, 2, 0.00,60.00,Tuesday
31,9469604.825749658
831,9469604.825749658
1043,0.0
2,10, 1,10, 0, 3, 0.00,60.00,Tuesday
31,9469604.825749658
831,9469604.825749658
1043,0.0
2,10, 1,10, 0, 4, 0.00,60.00,Tuesday
31,9469604.825749658
831,9469604.825749658
1043,0.0
2,10, 1,10, 0, 5, 0.00,60.00,Tuesday
31,9469604.825749658
831,9469604.825749658
1043,0.0
2,10, 1,10, 0, 6, 0.00,60.00,Tuesday
31,9469604.825749658
831,9469604.825749658
1043,0.0
2,10, 1,10, 0, 7, 0.00,60.00,Tuesday
31,30358180.289372207
831,30358180.289372207
1043,6238497.283499564
2,10, 1,10, 0, 8, 0.00,60.00,Tuesday
31,36956643.61389993
831,36956643.61389993
1043,9384338.247620438
2,10, 1,10, 0, 9, 0.00,60.00,Tuesday
31,36329389.5704266
831,36329389.57042658
1043,0.0
2,10, 1,10, 0,10, 0.00,60.00,Tuesday
31,32050013.734169317
831,32050013.73416931
1043,0.0
2,10, 1,10, 0,11, 0.00,60.00,Tuesday
31,30855968.452141685
831,30855968.452141674
1043,0.0
2,10, 1,10, 0,12, 0.00,60.00,Tuesday
31,30078066.655772218
831,30078066.65577221
1043,0.0
2,10, 1,10, 0,13, 0.00,60.00,Tuesday
31,28326903.33833318
831,28326903.33833317
1043,0.0
2,10, 1,10, 0,14, 0.00,60.00,Tuesday
31,29834960.80748541
831,29834960.8074854
1043,0.0
2,10, 1,10, 0,15, 0.00,60.00,Tuesday
31,29790886.97481427
831,29790886.97481427
1043,0.0
2,10, 1,10, 0,16, 0.00,60.00,Tuesday
31,30008715.111965639
831,30008715.11196563
1043,0.0
2,10, 1,10, 0,17, 0.00,60.00,Tuesday
31,32271540.253453539
831,32271540.253453535
1043,0.0
2,10, 1,10, 0,18, 0.00,60.00,Tuesday
31,30884218.674610624
831,30884218.674610616
1043,41461.67565643489
2,10, 1,10, 0,19, 0.00,60.00,Tuesday
31,28501728.681830616
831,28501728.68183061
1043,0.0
2,10, 1,10, 0,20, 0.00,60.00,Tuesday
31,11853154.258345897
831,11853154.258345895
1043,0.0
2,10, 1,10, 0,21, 0.00,60.00,Tuesday
31,10637784.395628443
831,10637784.395628443
1043,0.0
2,10, 1,10, 0,22, 0.00,60.00,Tuesday
31,10637784.395628443
831,10637784.395628443
1043,0.0
2,10, 1,10, 0,23, 0.00,60.00,Tuesday
31,9543951.519120457
831,9543951.519120455
1043,0.0
2,10, 1,10, 0,24, 0.00,60.00,Tuesday
31,7197449.08321209
831,7197449.08321209
1043,0.0
2,11, 1,11, 0, 1, 0.00,60.00,Wednesday
31,9469604.825749658
831,9469604.825749658
1043,0.0
2,11, 1,11, 0, 2, 0.00,60.00,Wednesday
31,9469604.825749658
831,9469604.825749658
1043,0.0
2,11, 1,11, 0, 3, 0.00,60.00,Wednesday
31,9469604.825749658
831,9469604.825749658
1043,0.0
2,11, 1,11, 0, 4, 0.00,60.00,Wednesday
31,9469604.825749658
831,9469604.825749658
1043,0.0
2,11, 1,11, 0, 5, 0.00,60.00,Wednesday
31,9469604.825749658
831,9469604.825749658
1043,0.0
2,11, 1,11, 0, 6, 0.00,60.00,Wednesday
31,9469604.825749658
831,9469604.825749658
1043,0.0
2,11, 1,11, 0, 7, 0.00,60.00,Wednesday
31,30759577.148338044
831,30759577.148338036
1043,6212376.754905701
2,11, 1,11, 0, 8, 0.00,60.00,Wednesday
31,38184959.62257152
831,38184959.62257151
1043,11481993.599102812
2,11, 1,11, 0, 9, 0.00,60.00,Wednesday
31,40540727.911601889
831,40540727.911601889
1043,0.0
2,11, 1,11, 0,10, 0.00,60.00,Wednesday
31,36622194.60201562
831,36622194.60201562
1043,0.0
2,11, 1,11, 0,11, 0.00,60.00,Wednesday
31,33658638.58353075
831,33658638.58353073
1043,0.0
2,11, 1,11, 0,12, 0.00,60.00,Wednesday
31,31393310.579257437
831,31393310.579257434
1043,0.0
2,11, 1,11, 0,13, 0.00,60.00,Wednesday
31,30591068.1524713
831,30591068.1524713
1043,0.0
2,11, 1,11, 0,14, 0.00,60.00,Wednesday
31,29564384.94362339
831,29564384.943623388
1043,0.0
2,11, 1,11, 0,15, 0.00,60.00,Wednesday
31,29463485.99302009
831,29463485.99302008
1043,0.0
2,11, 1,11, 0,16, 0.00,60.00,Wednesday
31,29813184.32100227
831,29813184.321002269
1043,0.0
2,11, 1,11, 0,17, 0.00,60.00,Wednesday
31,31805261.63669892
831,31805261.63669892
1043,0.0
2,11, 1,11, 0,18, 0.00,60.00,Wednesday
31,27035636.4384205
831,27035636.43842049
1043,0.0
2,11, 1,11, 0,19, 0.00,60.00,Wednesday
31,22626650.077262533
831,22626650.077262533
1043,0.0
2,11, 1,11, 0,20, 0.00,60.00,Wednesday
31,11853154.258345897
831,11853154.258345895
1043,0.0
2,11, 1,11, 0,21, 0.00,60.00,Wednesday
31,10637784.395628443
831,10637784.395628443
1043,0.0
2,11, 1,11, 0,22, 0.00,60.00,Wednesday
31,10637784.395628443
831,10637784.395628443
1043,0.0
2,11, 1,11, 0,23, 0.00,60.00,Wednesday
31,9543951.519120457
831,9543951.519120455
1043,0.0
2,11, 1,11, 0,24, 0.00,60.00,Wednesday
31,7197449.08321209