Program Version,EnergyPlus, Version 8.6.0-198c6a3cff, YMD=2019.03.03 18:57
1,5,Environment Title[],Latitude[deg],Longitude[deg],Time Zone[],Elevation[m]
2,6,Day of Simulation[],Month[],Day of Month[],DST Indicator[1=yes 0=no],Hour[],StartMinute[],EndMinute[],DayType
3,3,Cumulative Day of Simulation[],Month[],Day of Month[],DST Indicator[1=yes 0=no],DayType  ! When Daily Report Variables Requested
4,2,Cumulative Days of Simulation[],Month[]  ! When Monthly Report Variables Requested
5,1,Cumulative Days of Simulation[] ! When Run Period Report Variables Requested
525,1,CORE_ZN,Zone Predicted Sensible Load to Setpoint Heat Transfer Rate [W] !Hourly
526,1,CORE_ZN,Zone Predicted Sensible Load to Heating Setpoint Heat Transfer Rate [W] !Hourly
527,1,CORE_ZN,Zone Predicted Sensible Load to Cooling Setpoint Heat Transfer Rate [W] !Hourly
562,1,PERIMETER_ZN_1,Zone Predicted Sensible Load to Setpoint Heat Transfer Rate [W] !Hourly
563,1,PERIMETER_ZN_1,Zone Predicted Sensible Load to Heating Setpoint Heat Transfer Rate [W] !Hourly
564,1,PERIMETER_ZN_1,Zone Predicted Sensible Load to Cooling Setpoint Heat Transfer Rate [W] !Hourly
599,1,PERIMETER_ZN_2,Zone Predicted Sensible Load to Setpoint Heat Transfer Rate [W] !Hourly
600,1,PERIMETER_ZN_2,Zone Predicted Sensible Load to Heating Setpoint Heat Transfer Rate [W] !Hourly
601,1,PERIMETER_ZN_2,Zone Predicted Sensible Load to Cooling Setpoint Heat Transfer Rate [W] !Hourly
636,1,PERIMETER_ZN_3,Zone Predicted Sensible Load to Setpoint Heat Transfer Rate [W] !Hourly
637,1,PERIMETER_ZN_3,Zone Predicted Sensible Load to Heating Setpoint Heat Transfer Rate [W] !Hourly
638,1,PERIMETER_ZN_3,Zone Predicted Sensible Load to Cooling Setpoint Heat Transfer Rate [W] !Hourly
673,1,PERIMETER_ZN_4,Zone Predicted Sensible Load to Setpoint Heat Transfer Rate [W] !Hourly
674,1,PERIMETER_ZN_4,Zone Predicted Sensible Load to Heating Setpoint Heat Transfer Rate [W] !Hourly
675,1,PERIMETER_ZN_4,Zone Predicted Sensible Load to Cooling Setpoint Heat Transfer Rate [W] !Hourly
710,1,ATTIC,Zone Predicted Sensible Load to Setpoint Heat Transfer Rate [W] !Hourly
711,1,ATTIC,Zone Predicted Sensible Load to Heating Setpoint Heat Transfer Rate [W] !Hourly
712,1,ATTIC,Zone Predicted Sensible Load to Cooling Setpoint Heat Transfer Rate [W] !Hourly
End of Data Dictionary
1,BUFFALO.NIAGARA.INTL.AP_NY_USA ANN HTG 99.6% CONDNS DB,  41.98, -87.92,  -6.00, 201.00
2,1, 1,21, 0, 1, 0.00,60.00,WinterDesignDay
525,1951.4148109360874
526,1932.1407226317708
527,46303.0068738193
562,4072.697688462913
563,4072.697688462913
564,39329.818015908386
599,2555.4466985767754
600,2555.4466985767754
601,23709.43977099312
636,4127.170785661071
637,4127.170785661071
638,39477.22020335602
673,2563.2778170863166
674,2563.2778170863166
675,23718.658182784955
710,0.0
711,0.0
712,0.0
2,1, 1,21, 0, 2, 0.00,60.00,WinterDesignDay
525,2074.3814302442493
526,2055.13417844419
527,48787.70508395441
562,5277.213317319954
563,5277.213317319954
564,42713.43119137285
599,3295.613839203044
600,3295.613839203044
601,25753.00802181115
636,5323.6323431439205
637,5323.6323431439205
638,42811.40612534228
673,3304.3449117286054
674,3304.3449117286054
675,25763.987715090614
710,0.0
711,0.0
712,0.0
2,1, 1,21, 0, 3, 0.00,60.00,WinterDesignDay
525,1490.526386452737
526,1451.8478346774828
527,45542.60412696283
562,4077.860941255071
563,4077.860941255071
564,39337.388539618485
599,2558.2630998153904
600,2558.2630998153904
601,23713.609173363177
636,4132.401755685733
637,4132.401755685733
638,39484.830519818264
673,2566.045659210688
674,2566.045659210688
675,23722.753512122417
710,0.0
711,0.0
712,0.0
2,1, 1,21, 0, 4, 0.00,60.00,WinterDesignDay
525,2082.2923009481888
526,2062.9426585151928
527,48815.842506254565
562,5282.237512768737
563,5282.237512768737
564,42721.1752829797
599,3298.4776601615854
600,3298.4776601615854
601,25757.41736705838
636,5328.695199904549
637,5328.695199904549
638,42819.19683740676
673,3307.196970736921
674,3307.196970736921
675,25768.371870398292
710,0.0
711,0.0
712,0.0
2,1, 1,21, 0, 5, 0.00,60.00,WinterDesignDay
525,1490.5131083106883
526,1451.8688507118068
527,45556.65364775201
562,4080.855795702613
563,4080.855795702613
564,39341.80208761826
599,2560.047319863233
600,2560.047319863233
601,23716.252480146763
636,4135.424498341553
637,4135.424498341553
638,39489.24402761177
673,2567.8289924955598
674,2567.8289924955598
675,23725.39228949502
710,0.0
711,0.0
712,0.0
2,1, 1,21, 0, 6, 0.00,60.00,WinterDesignDay
525,2078.727369867069
526,2059.4442957010565
527,48821.323677930784
562,5285.11924834827
563,5285.11924834827
564,42725.56106062897
599,3300.2183067322107
600,3300.2183067322107
601,25760.086858361155
636,5331.605070593096
637,5331.605070593096
638,42823.635751974594
673,3308.9374228855
674,3308.9374228855
675,25771.039783548986
710,0.0
711,0.0
712,0.0
2,1, 1,21, 0, 7, 0.00,60.00,WinterDesignDay
525,1487.0969558417266
526,1448.6226363350258
527,45563.1867906797
562,4082.74315125183
563,4082.74315125183
564,39344.524928398976
599,2561.2107352666067
600,2561.2107352666067
601,23717.956113495442
636,4137.339967267993
637,4137.339967267993
638,39492.011972894776
673,2568.994159987129
674,2568.994159987129
675,23727.09787409782
710,0.0
711,0.0
712,0.0
2,1, 1,21, 0, 8, 0.00,60.00,WinterDesignDay
525,1841.8049136663976
526,1841.8049136663976
527,41754.43499412943
562,3747.6341642226703
563,3747.6341642226703
564,35726.01983443688
599,2306.40055373892
600,2306.40055373892
601,21465.571938677986
636,3770.378593927618
637,3770.378593927618
638,35734.25124949828
673,2316.3543121417933
674,2316.3543121417933
675,21480.977540092736
710,0.0
711,0.0
712,0.0
2,1, 1,21, 0, 9, 0.00,60.00,WinterDesignDay
525,1389.8496045736904
526,1389.82252681264
527,38651.228157929734
562,2813.7281964930135
563,2813.7281964930135
564,32470.214648606237
599,1726.9363575634143
600,1726.9363575634143
601,19433.535959465382
636,2822.8434306608065
637,2822.8434306608065
638,32432.09994508313
673,1739.0020234375563
674,1739.0020234375563
675,19454.697244181192
710,0.0
711,0.0
712,0.0
2,1, 1,21, 0,10, 0.00,60.00,WinterDesignDay
525,1864.822203396563
526,1864.747148804631
527,41762.75605715463
562,3730.4035421904205
563,3730.4035421904205
564,35690.38254628133
599,2290.9863638974175
600,2290.9863638974175
601,21429.95262856336
636,3752.5032558745893
637,3752.5032558745893
638,35693.48789118902
673,2300.7076623555513
674,2300.7076623555513
675,21445.855089237837
710,0.0
711,0.0
712,0.0
2,1, 1,21, 0,11, 0.00,60.00,WinterDesignDay
525,1399.2511660462524
526,1399.0651138752726
527,38644.915409151734
562,2803.9434589792436
563,2803.9434589792436
564,32451.746301906915
599,1720.4252437492835
600,1720.4252437492835
601,19421.686745812298
636,2813.3055232039574
637,2813.3055232039574
638,32415.236750724118
673,1732.4422718194871
674,1732.4422718194871
675,19442.835725555895
710,0.0
711,0.0
712,0.0
2,1, 1,21, 0,12, 0.00,60.00,WinterDesignDay
525,1885.3496634813248
526,1885.1495019534307
527,41776.8654390214
562,3722.894966188855
563,3722.894966188855
564,35676.97503645272
599,2286.6246397271493
600,2286.6246397271493
601,21424.394570980792
636,3745.4002481985626
637,3745.4002481985626
638,35682.51256607811
673,2296.2498431979006
674,2296.2498431979006
675,21439.931136838048
710,0.0
711,0.0
712,0.0
2,1, 1,21, 0,13, 0.00,60.00,WinterDesignDay
525,1425.9968941938116
526,1425.4348740995583
527,38653.90446807465
562,2799.900116979032
563,2799.900116979032
564,32443.01531754232
599,1719.2812436402291
600,1719.2812436402291
601,19423.552943617437
636,2810.3509791263637
637,2810.3509791263637
638,32412.099032474984
673,1731.138358515406
674,1731.138358515406
675,19443.987450246248
710,0.0
711,0.0
712,0.0
2,1, 1,21, 0,14, 0.00,60.00,WinterDesignDay
525,1907.8412156858437
526,1907.5173275345794
527,41795.062161215916
562,3719.054736547663
563,3719.054736547663
564,35669.80612534872
599,2284.7439818638773
600,2284.7439818638773
601,21423.11710321232
636,3742.0076005626615
637,3742.0076005626615
638,35677.85854832755
673,2294.2969136232864
674,2294.2969136232864
675,21438.336509420526
710,0.0
711,0.0
712,0.0
2,1, 1,21, 0,15, 0.00,60.00,WinterDesignDay
525,1411.1505042029064
526,1410.6264096539626
527,38642.04680830127
562,2797.328791871341
563,2797.328791871341
564,32437.15370298405
599,1718.8204460597055
600,1718.8204460597055
601,19425.893381177186
636,2808.6899544993234
637,2808.6899544993234
638,32410.940127568243
673,1730.5674792193397
674,1730.5674792193397
675,19445.818962427962
710,0.0
711,0.0
712,0.0
2,1, 1,21, 0,16, 0.00,60.00,WinterDesignDay
525,1884.1029200679593
526,1883.9268543915584
527,41777.92159790521
562,3716.335056832411
563,3716.335056832411
564,35664.6993693567
599,2283.435369557653
600,2283.435369557653
601,21422.304222514893
636,3739.616943848787
637,3739.616943848787
638,35674.654912609636
673,2292.9427012049987
674,2292.9427012049987
675,21437.317108300496
710,0.0
711,0.0
712,0.0
2,1, 1,21, 0,17, 0.00,60.00,WinterDesignDay
525,1420.6572601140087
526,1420.2011225208241
527,38653.70929560186
562,2795.3847359127776
563,2795.3847359127776
564,32432.773495255857
599,1718.429674549957
600,1718.429674549957
601,19427.466522149323
636,2807.4083495757563
637,2807.4083495757563
638,32410.02171295654
673,1730.1050934828215
674,1730.1050934828215
675,19447.059250507642
710,0.0
711,0.0
712,0.0
2,1, 1,21, 0,18, 0.00,60.00,WinterDesignDay
525,1876.507936949568
526,1876.3993507281357
527,41773.36965591608
562,3714.312536182619
563,3714.312536182619
564,35660.88403951255
599,2282.44584681702
600,2282.44584681702
601,21421.643738903804
636,3737.831525166616
637,3737.831525166616
638,35672.25955786637
673,2291.923298112472
674,2291.923298112472
675,21436.518342073497
710,0.0
711,0.0
712,0.0
2,1, 1,21, 0,19, 0.00,60.00,WinterDesignDay
525,1525.8052390660148
526,1505.6996114835117
527,43310.85712935682
562,3890.2942022978114
563,3890.2942022978114
564,37245.07587730552
599,2429.5860416466026
600,2429.5860416466026
601,22399.8477254592
636,3926.4841340801413
637,3926.4841340801413
638,37312.36982227113
673,2439.0664884605053
674,2439.0664884605053
675,22413.55383423307
710,0.0
711,0.0
712,0.0
2,1, 1,21, 0,20, 0.00,60.00,WinterDesignDay
525,2123.898508876089
526,2104.078076556359
527,48860.14589689203
562,5252.244494311995
563,5252.244494311995
564,42672.46523453528
599,3277.248351786133
600,3277.248351786133
601,25721.70014064017
636,5298.0517782215575
637,5298.0517782215575
638,42769.9165620693
673,3285.8282787928106
674,3285.8282787928106
675,25732.358609536557
710,0.0
711,0.0
712,0.0
2,1, 1,21, 0,21, 0.00,60.00,WinterDesignDay
525,1525.8247875026366
526,1486.0373051978834
527,45582.404691508156
562,4065.7449715103758
563,4065.7449715103758
564,39317.99616829813
599,2549.197745544221
600,2549.197745544221
601,23698.17334379999
636,4119.957015409614
637,4119.957015409614
638,39465.13223494426
673,2556.8781530683445
674,2556.8781530683445
675,23707.10713983753
710,0.0
711,0.0
712,0.0
2,1, 1,21, 0,22, 0.00,60.00,WinterDesignDay
525,2117.88711698982
526,2098.1546942972327
527,48864.61848050418
562,5272.2170259290115
563,5272.2170259290115
564,42705.8322420583
599,3291.351582825799
600,3291.351582825799
601,25746.239454048584
636,5318.415684469153
637,5318.415684469153
638,42803.38444808585
673,3300.0048383653157
674,3300.0048383653157
675,25757.08743579839
710,0.0
711,0.0
712,0.0
2,1, 1,21, 0,23, 0.00,60.00,WinterDesignDay
525,1508.1129500316704
526,1468.841729567969
527,45580.374916852474
562,4074.6231029158503
563,4074.6231029158503
564,39332.789129295044
599,2555.5710180132132
600,2555.5710180132132
601,23709.50500694217
636,4128.983714310952
637,4128.983714310952
638,39479.83245559157
673,2563.302607168887
674,2563.302607168887
675,23718.565765908093
710,0.0
711,0.0
712,0.0
2,1, 1,21, 0,24, 0.00,60.00,WinterDesignDay
525,2100.900920570008
526,2081.3779734028976
527,48853.63050874396
562,5278.755943037132
563,5278.755943037132
564,42716.043506005975
599,3295.7776218420363
600,3295.7776218420363
601,25753.32864044726
636,5325.095099490568
637,5325.095099490568
638,42813.800337011664
673,3304.4528317794234
674,3304.4528317794234
675,25764.216060689523
710,0.0
711,0.0
712,0.0
1,BUFFALO.NIAGARA.INTL.AP_NY_USA ANN CLG .4% CONDNS DB=>MWB,  41.98, -87.92,  -6.00, 201.00
2,1, 7,21, 0, 1, 0.00,60.00,SummerDesignDay
525,-3981.265679529943
526,-45062.95914526531
527,-3981.265679529943
562,-2839.7127061957394
563,-34774.56039282802
564,-2839.7127061957394
599,-1636.275446723915
600,-20789.545989853814
601,-1636.275446723915
636,-2841.369330267142
637,-34686.28124201303
638,-2841.369330267142
673,-1737.868252310801
674,-21042.86108522829
675,-1737.868252310801
710,0.0
711,0.0
712,0.0
2,1, 7,21, 0, 2, 0.00,60.00,SummerDesignDay
525,-4221.939198598698
526,-43229.35849719256
527,-4221.939198598698
562,-3022.2603895390844
563,-33163.472752726586
564,-3022.2603895390844
599,-1794.0348066103106
600,-19876.268464747638
601,-1794.0348066103106
636,-3000.2464086785462
637,-33119.80413492426
638,-3000.2464086785462
673,-1893.8965942731184
674,-20097.67424374993
675,-1893.8965942731184
710,0.0
711,0.0
712,0.0
2,1, 7,21, 0, 3, 0.00,60.00,SummerDesignDay
525,-3468.055404887607
526,-40158.02129888398
527,-3468.055404887607
562,-2381.822916601261
563,-30738.46734194062
564,-2381.822916601261
599,-1374.2418831290734
600,-18385.617996421584
601,-1374.2418831290734
636,-2382.5307231841093
637,-30730.201188224863
638,-2382.5307231841093
673,-1438.8126397048602
674,-18512.511829180712
675,-1438.8126397048602
710,0.0
711,0.0
712,0.0
2,1, 7,21, 0, 4, 0.00,60.00,SummerDesignDay
525,-4187.545432135481
526,-43150.058060686504
527,-4187.545432135481
562,-2912.6145306377707
563,-32974.73531663446
564,-2912.6145306377707
599,-1723.4712334870171
600,-19748.272665777593
601,-1723.4712334870171
636,-2890.361637501124
637,-32927.17643181428
638,-2890.361637501124
673,-1796.3314216869946
674,-19901.69197364202
675,-1796.3314216869946
710,0.0
711,0.0
712,0.0
2,1, 7,21, 0, 5, 0.00,60.00,SummerDesignDay
525,-3440.589678190559
526,-40108.13414857886
527,-3440.589678190559
562,-2305.662907511764
563,-30612.007711195678
564,-2305.662907511764
599,-1350.0944098703965
600,-18341.562420417176
601,-1350.0944098703965
636,-2321.583380104854
637,-30625.384405632532
638,-2321.583380104854
673,-1376.6921033047745
674,-18399.6771089487
675,-1376.6921033047745
710,0.0
711,0.0
712,0.0
2,1, 7,21, 0, 6, 0.00,60.00,SummerDesignDay
525,-4615.496365510763
526,-52602.832703586966
527,-4615.496365510763
562,-3224.2240026168533
563,-40158.1656826032
564,-3224.2240026168533
599,-2481.7019289813556
600,-24992.09426393829
601,-2481.7019289813556
636,-3304.874049842594
637,-40360.926121335855
638,-3304.874049842594
673,-1956.5491382838784
674,-24117.138029251622
675,-1956.5491382838784
710,0.0
711,0.0
712,0.0
2,1, 7,21, 0, 7, 0.00,60.00,SummerDesignDay
525,-2854.6966025928828
526,-64528.007397541376
527,-2854.6966025928828
562,-2016.9461327683882
563,-49448.302339135866
564,-2016.9461327683882
599,-2083.287504876433
600,-31356.58574733793
601,-2083.287504876433
636,-2038.3045554990483
637,-49512.63027260776
638,-2038.3045554990483
673,-1187.7560096633908
674,-29538.766834674218
675,-1187.7560096633908
710,0.0
711,0.0
712,0.0
2,1, 7,21, 0, 8, 0.00,60.00,SummerDesignDay
525,-2487.1726665905107
526,-66434.42625848572
527,-2487.1726665905107
562,-1934.860149703881
563,-51174.165903275185
564,-1934.860149703881
599,-2414.327435516549
600,-33273.2822523671
601,-2414.327435516549
636,-1932.2589152673238
637,-51172.686978774786
638,-1932.2589152673238
673,-1174.7147603952637
674,-30585.286375406602
675,-1174.7147603952637
710,0.0
711,0.0
712,0.0
2,1, 7,21, 0, 9, 0.00,60.00,SummerDesignDay
525,-2520.0653465332757
526,-71069.25708557909
527,-2520.0653465332757
562,-2053.44905193862
563,-54935.22523932887
564,-2053.44905193862
599,-2610.589279651265
600,-35692.90040109843
601,-2610.589279651265
636,-2070.691602189603
637,-54972.35143670727
638,-2070.691602189603
673,-1236.9761061090073
674,-32796.4143852645
675,-1236.9761061090073
710,0.0
711,0.0
712,0.0
2,1, 7,21, 0,10, 0.00,60.00,SummerDesignDay
525,-2580.9029063522335
526,-71268.92356031835
527,-2580.9029063522335
562,-2219.714058181738
563,-55378.49910307369
564,-2219.714058181738
599,-2415.517773158885
600,-35408.48364880609
601,-2415.517773158885
636,-2209.520845665878
637,-55347.593687864486
638,-2209.520845665878
673,-1320.5286426042564
674,-33017.20951270053
675,-1320.5286426042564
710,0.0
711,0.0
712,0.0
2,1, 7,21, 0,11, 0.00,60.00,SummerDesignDay
525,-2645.5474512844953
526,-53392.12364086738
527,-2645.5474512844953
562,-2466.0987650248794
563,-42300.32095087209
564,-2466.0987650248794
599,-2021.843071931646
600,-26551.85661879263
601,-2021.843071931646
636,-2330.8330538318955
637,-41954.60644264394
638,-2330.8330538318955
673,-1403.928612375964
674,-25102.508932494966
675,-1403.928612375964
710,0.0
711,0.0
712,0.0
2,1, 7,21, 0,12, 0.00,60.00,SummerDesignDay
525,-2702.05122829635
526,-40008.99803106694
527,-2702.05122829635
562,-2710.3101996143614
563,-32602.07764912803
564,-2710.3101996143614
599,-1845.8083146384697
600,-20057.686632290333
601,-1845.8083146384697
636,-2434.6764065490356
637,-31931.20052275277
638,-2434.6764065490356
673,-1474.1586349201598
674,-19182.425604240023
675,-1474.1586349201598
710,0.0
711,0.0
712,0.0
2,1, 7,21, 0,13, 0.00,60.00,SummerDesignDay
525,-2748.602642333186
526,-26595.95346201588
527,-2748.602642333186
562,-2858.8241172352705
563,-22667.54124269243
564,-2858.8241172352705
599,-1801.04959277321
600,-13854.597038027954
601,-1801.04959277321
636,-2520.5771764607853
637,-21859.386430160972
638,-2520.5771764607853
673,-1519.734618094372
674,-13197.487229675115
675,-1519.734618094372
710,0.0
711,0.0
712,0.0
2,1, 7,21, 0,14, 0.00,60.00,SummerDesignDay
525,-2782.5363782528525
526,-24439.08342903259
527,-2782.5363782528525
562,-2878.194067212809
563,-21005.56255674545
564,-2878.194067212809
599,-1776.0674054586914
600,-12781.387010959981
601,-1776.0674054586914
636,-2583.136495046167
637,-20295.737617106468
638,-2583.136495046167
673,-1689.7277749954883
674,-12534.734607462524
675,-1689.7277749954883
710,0.0
711,0.0
712,0.0
2,1, 7,21, 0,15, 0.00,60.00,SummerDesignDay
525,-2809.0775334965087
526,-33547.23109050592
527,-2809.0775334965087
562,-2815.6748687092017
563,-27713.178090700017
564,-2815.6748687092017
599,-1747.5083518467825
600,-16784.382698961053
601,-1747.5083518467825
636,-2616.1325477523933
637,-27231.463548055395
638,-2616.1325477523933
673,-2198.0943809500973
674,-17596.311099214225
675,-2198.0943809500973
710,0.0
711,0.0
712,0.0
2,1, 7,21, 0,16, 0.00,60.00,SummerDesignDay
525,-2815.4406686414645
526,-47126.433434075305
527,-2815.4406686414645
562,-2745.006281002318
563,-37829.997135701364
564,-2745.006281002318
599,-1702.3908482807708
600,-22783.981623352738
601,-1702.3908482807708
636,-2584.401327322576
637,-37458.258055342696
638,-2584.401327322576
673,-2681.9291343517457
674,-24589.440874672277
675,-2681.9291343517457
710,0.0
711,0.0
712,0.0
2,1, 7,21, 0,17, 0.00,60.00,SummerDesignDay
525,-2792.1286653474763
526,-56117.13559319145
527,-2792.1286653474763
562,-2658.732871087686
563,-44495.2359522387
564,-2658.732871087686
599,-1647.3085518311327
600,-26730.617147779285
601,-1647.3085518311327
636,-2525.8222957582807
637,-44183.28461599201
638,-2525.8222957582807
673,-2873.2410923179723
674,-29014.835846600297
675,-2873.2410923179723
710,0.0
711,0.0
712,0.0
2,1, 7,21, 0,18, 0.00,60.00,SummerDesignDay
525,-2763.3994127154742
526,-65068.712934456016
527,-2763.3994127154742
562,-2553.2223702249335
563,-51108.214953037976
564,-2553.2223702249335
599,-1557.0336279920896
600,-30596.24951591088
601,-1557.0336279920896
636,-2461.24083751356
637,-50888.25909934458
638,-2461.24083751356
673,-2744.947533623679
674,-32897.75711775982
675,-2744.947533623679
710,0.0
711,0.0
712,0.0
2,1, 7,21, 0,19, 0.00,60.00,SummerDesignDay
525,-2713.2115964444565
526,-64930.48265274838
527,-2713.2115964444565
562,-2399.5188842355396
563,-50745.20405297055
564,-2399.5188842355396
599,-1460.7161284574515
600,-30365.145726200077
601,-1460.7161284574515
636,-2412.8914121177863
637,-50785.147679345544
638,-2412.8914121177863
673,-2321.0896172454795
674,-32186.98895315683
675,-2321.0896172454795
710,0.0
711,0.0
712,0.0
2,1, 7,21, 0,20, 0.00,60.00,SummerDesignDay
525,-5035.116499676792
526,-71320.71630705078
527,-5035.116499676792
562,-3971.3311128846763
563,-55311.098335326904
564,-3971.3311128846763
599,-2274.791217989159
600,-32963.45629603114
601,-2274.791217989159
636,-4055.077734026685
637,-55372.03747851952
638,-4055.077734026685
673,-2965.7977954695584
674,-34136.707847806014
675,-2965.7977954695584
710,0.0
711,0.0
712,0.0
2,1, 7,21, 0,21, 0.00,60.00,SummerDesignDay
525,-5047.777912248461
526,-57837.115145215466
527,-5047.777912248461
562,-3966.4916381297066
563,-44909.901077213326
564,-3966.4916381297066
599,-2378.0450310308247
600,-26896.977416764294
601,-2378.0450310308247
636,-3983.76088168631
637,-44911.70664436422
638,-3983.76088168631
673,-2806.1144253417006
674,-27645.05897313918
675,-2806.1144253417006
710,0.0
711,0.0
712,0.0
2,1, 7,21, 0,22, 0.00,60.00,SummerDesignDay
525,-3914.846209677237
526,-45227.072982613034
527,-3914.846209677237
562,-2901.0558145224263
563,-34998.86302606413
564,-2901.0558145224263
599,-1685.2543157165874
600,-20941.38326522007
601,-1685.2543157165874
636,-2911.1470051457727
637,-34994.04482819263
638,-2911.1470051457727
673,-1876.2994635043906
674,-21242.44096220842
675,-1876.2994635043906
710,0.0
711,0.0
712,0.0
2,1, 7,21, 0,23, 0.00,60.00,SummerDesignDay
525,-4387.833212325385
526,-43520.81056819304
527,-4387.833212325385
562,-3301.7884256431375
563,-33749.382577043776
564,-3301.7884256431375
599,-1974.5855208622745
600,-20254.787903862885
601,-1974.5855208622745
636,-3284.21850368448
637,-33697.999971367106
638,-3284.21850368448
673,-2172.017949007403
674,-20644.885525960137
675,-2172.017949007403
710,0.0
711,0.0
712,0.0
2,1, 7,21, 0,24, 0.00,60.00,SummerDesignDay
525,-3615.7545700089486
526,-40373.424049789275
527,-3615.7545700089486
562,-2583.777081020919
563,-31121.26029736163
564,-2583.777081020919
599,-1491.983189861446
600,-18623.34280310533
601,-1491.983189861446
636,-2587.842845547548
637,-31100.46856982487
638,-2587.842845547548
673,-1604.9491563027912
674,-18836.227686237675
675,-1604.9491563027912
710,0.0
711,0.0
712,0.0
1,Chicago Ohare Intl Ap IL USA TMY3 WMO#=725300,  41.98, -87.92,  -6.00, 201.00
2,1, 1, 1, 0, 1, 0.00,60.00,Holiday
525,0.0
526,-18007.56732012023
527,49973.76774826803
562,0.0
563,-6997.80559178161
564,46027.07620058634
599,0.0
600,-2944.393974562842
601,28853.752403623224
636,0.0
637,-4310.980155939438
638,49133.15188782761
673,0.0
674,-2649.065787508881
675,29128.846891221183
710,0.0
711,0.0
712,0.0
2,1, 1, 1, 0, 2, 0.00,60.00,Holiday
525,0.0
526,-18763.101285197168
527,56650.31977737217
562,0.0
563,-6699.123917707914
564,52668.24329450389
599,0.0
600,-2720.576116200908
601,32917.96191354829
636,0.0
637,-3892.9146017519415
638,56097.106097542426
673,0.0
674,-2403.200525964382
675,33249.322856902254
710,0.0
711,0.0
712,0.0
2,1, 1, 1, 0, 3, 0.00,60.00,Holiday
525,0.0
526,-7847.27631151874
527,25247.459938172822
562,0.0
563,-2740.351258312931
564,24650.681109074732
599,0.0
600,-1099.4642555769944
601,15487.269058161759
636,0.0
637,-1567.1858493504362
638,26244.043402581927
673,0.0
674,-959.0959944234219
675,15635.277921933555
710,0.0
711,0.0
712,0.0
2,1, 1, 1, 0, 4, 0.00,60.00,Holiday
525,0.0
526,-7588.874071137484
527,25547.287584896996
562,0.0
563,-2451.9299465199642
564,25087.02382904897
599,0.0
600,-953.3047096602126
601,15710.422654464537
636,0.0
637,-1362.4372319714705
638,26557.29970250097
673,0.0
674,-819.5360912958162
675,15853.70462859097
710,0.0
711,0.0
712,0.0
2,1, 1, 1, 0, 5, 0.00,60.00,Holiday
525,0.0
526,-7388.876768304331
527,25822.756229738767
562,0.0
563,-2126.1478165063613
564,25578.155009262427
599,0.0
600,-780.4831935116321
601,15986.884806970484
636,0.0
637,-1119.1873021584943
638,26959.14470208004
673,0.0
674,-653.8131985514943
675,16125.987388784406
710,0.0
711,0.0
712,0.0
2,1, 1, 1, 0, 6, 0.00,60.00,Holiday
525,0.0
526,-7221.480988981962
527,26078.300277648577
562,0.0
563,-1886.1836128921962
564,25859.559037309285
599,0.0
600,-659.3299754009367
601,16132.92557416718
636,0.0
637,-957.4216543117072
638,27152.61105538091
673,0.0
674,-540.6526826102212
675,16263.57555498629
710,0.0
711,0.0
712,0.0
2,1, 1, 1, 0, 7, 0.00,60.00,Holiday
525,0.0
526,-7080.654831542465
527,26319.327488921208
562,0.0
563,-1614.9673545844398
564,26198.932154913957
599,0.0
600,-513.2185102675872
601,16324.151115069579
636,0.0
637,-759.1272709608523
638,27416.715323301487
673,0.0
674,-404.4067451398593
675,16443.381678968937
710,0.0
711,0.0
712,0.0
2,1, 1, 1, 0, 8, 0.00,60.00,Holiday
525,0.0
526,-6956.135416867603
527,26540.78874609011
562,0.0
563,-1564.7826552543308
564,26319.095476546296
599,0.0
600,-537.4982937979688
601,16343.681023260515
636,0.0
637,-639.9713811652151
638,27568.494525921273
673,0.0
674,-319.3134191832596
675,16550.95177444277
710,0.0
711,0.0
712,0.0
2,1, 1, 1, 0, 9, 0.00,60.00,Holiday
525,0.0
526,-13428.290130861496
527,50952.61130579179
562,0.0
563,-5325.095950067317
564,45961.77180183969
599,0.0
600,-2488.5699424288055
601,28202.66390865466
636,0.0
637,-1384.392089960195
638,50395.99829587055
673,0.0
674,-704.6592997792118
675,30167.181497809117
710,0.0
711,0.0
712,0.0
2,1, 1, 1, 0,10, 0.00,60.00,Holiday
525,0.0
526,-20063.740897198466
527,71339.2719691872
562,0.0
563,-12549.554889792287
564,58450.94831037868
599,0.0
600,-4951.665710922588
601,37571.12068064089
636,0.0
637,-1989.9834584959597
638,70519.82801105117
673,0.0
674,-1077.251127063045
675,42124.17840412656
710,0.0
711,0.0
712,0.0
2,1, 1, 1, 0,11, 0.00,60.00,Holiday
525,0.0
526,-25172.214225342217
527,74188.34321884004
562,0.0
563,-19532.292403040814
564,57159.92094200436
599,0.0
600,-5219.616709447652
601,40332.48933337411
636,0.0
637,-2389.7928064541406
638,75767.78471049389
673,0.0
674,-1505.7294438460265
675,45020.296706987865
710,0.0
711,0.0
712,0.0
2,1, 1, 1, 0,12, 0.00,60.00,Holiday
525,0.0
526,-19442.96615282507
527,53037.94819316951
562,0.0
563,-16727.59904514023
564,38345.07634699235
599,0.0
600,-3665.1674551059677
601,29629.642767928486
636,0.0
637,-2550.922177808663
638,54366.2606781371
673,0.0
674,-1748.6499486182256
675,32107.46150992702
710,0.0
711,0.0
712,0.0
2,1, 1, 1, 0,13, 0.00,60.00,Holiday
525,0.0
526,-9599.714974358649
527,24573.022509842045
562,0.0
563,-6911.155575503944
564,17590.682547666813
599,0.0
600,-1844.555719020443
601,13709.609818911282
636,0.0
637,-1641.2726060438897
638,25264.3621862041
673,0.0
674,-1115.3747908047728
675,14828.503064834682
710,0.0
711,0.0
712,0.0
2,1, 1, 1, 0,14, 0.00,60.00,Holiday
525,0.0
526,-9887.688964870755
527,24468.674974071677
562,0.0
563,-6580.0190971307775
564,18820.082172674232
599,0.0
600,-1947.3430292987243
601,13418.600119859178
636,0.0
637,-2041.7527478486147
638,24540.69908007255
673,0.0
674,-1393.4762207785673
675,14284.986747924188
710,0.0
711,0.0
712,0.0
2,1, 1, 1, 0,15, 0.00,60.00,Holiday
525,0.0
526,-10056.602295548773
527,24389.933397665754
562,0.0
563,-6248.035088660358
564,18623.749652853785
599,0.0
600,-2028.908836227647
601,13172.815114479085
636,0.0
637,-2334.678370914023
638,23795.2020287054
673,0.0
674,-1689.9634011111266
675,13659.807762019775
710,0.0
711,0.0
712,0.0
2,1, 1, 1, 0,16, 0.00,60.00,Holiday
525,0.0
526,-16920.335365028954
527,40549.64563504242
562,0.0
563,-9926.085152103316
564,31628.596479641532
599,0.0
600,-3540.22628319222
601,22010.439229417083
636,0.0
637,-4292.759370291144
638,38870.84389072122
673,0.0
674,-3193.118156264871
675,22874.63742809634
710,0.0
711,0.0
712,0.0
2,1, 1, 1, 0,17, 0.00,60.00,Holiday
525,0.0
526,-16947.242961960244
527,40555.63589823917
562,0.0
563,-9523.094814686072
564,32237.036712908226
599,0.0
600,-3759.797567137015
601,22277.08200521059
636,0.0
637,-4787.399189904186
638,39037.775764966726
673,0.0
674,-3391.2452065167054
675,22996.809705131018
710,0.0
711,0.0
712,0.0
2,1, 1, 1, 0,18, 0.00,60.00,Holiday
525,0.0
526,-13507.674657195801
527,32506.53577793817
562,0.0
563,-7177.999483894951
564,25573.999646392807
599,0.0
600,-3077.0863197064537
601,18006.109201749816
636,0.0
637,-4040.6744007391503
638,31279.383819547835
673,0.0
674,-2776.310564043821
675,18558.967858552813
710,0.0
711,0.0
712,0.0
2,1, 1, 1, 0,19, 0.00,60.00,Holiday
525,0.0
526,-10076.948085912487
527,24435.087525251845
562,0.0
563,-5032.235347326804
564,20322.63579860318
599,0.0
600,-2105.051211443642
601,13482.297430759461
636,0.0
637,-2821.2284159110545
638,23320.098304562136
673,0.0
674,-1922.5804863910078
675,14003.962422475683
710,0.0
711,0.0
712,0.0
2,1, 1, 1, 0,20, 0.00,60.00,Holiday
525,0.0
526,-10014.174877917185
527,24478.90564561905
562,0.0
563,-4664.605876534489
564,21517.16195945988
599,0.0
600,-1879.2629647575195
601,13765.873907640793
636,0.0
637,-2527.301412463587
638,23467.692982140095
673,0.0
674,-1634.0372526945084
675,13599.576079412118
710,0.0
711,0.0
712,0.0
2,1, 1, 1, 0,21, 0.00,60.00,Holiday
525,0.0
526,-9950.897049095254
527,24503.312481794816
562,0.0
563,-4577.128942586335
564,21608.64195613086
599,0.0
600,-1892.2432879805226
601,13629.60048030743
636,0.0
637,-2616.364601828362
638,23219.338431353608
673,0.0
674,-1701.4344608898766
675,13764.932715956427
710,0.0
711,0.0
712,0.0
2,1, 1, 1, 0,22, 0.00,60.00,Holiday
525,0.0
526,-9916.45802763837
527,24510.253415752446
562,0.0
563,-4427.619194976028
564,21614.641212220045
599,0.0
600,-1887.0769047369547
601,13632.528841294741
636,0.0
637,-2675.2407869741432
638,23214.084212519836
673,0.0
674,-1732.3805391319995
675,13943.77175100927
710,0.0
711,0.0
712,0.0
2,1, 1, 1, 0,23, 0.00,60.00,Holiday
525,0.0
526,-9888.839583623807
527,24518.805228082663
562,0.0
563,-4086.7210426313795
564,22335.264415719965
599,0.0
600,-1719.5379117580458
601,14052.726814220749
636,0.0
637,-2471.2546778030614
638,23916.321150807024
673,0.0
674,-1545.6161146300456
675,14126.065543446042
710,0.0
711,0.0
712,0.0